<?xml version="1.0" encoding="ISO-8859-1"?>
<modeling>
 <generator>
  <i name="program" type="string">vasp </i>
  <i name="version" type="string">5.4.1  </i>
  <i name="subversion" type="string">05Feb16 (build Nov 21 2016 21:33:51) complex                          parallel </i>
  <i name="platform" type="string">LinuxIFC </i>
  <i name="date" type="string">2017 09 04 </i>
  <i name="time" type="string">13:38:38 </i>
 </generator>
 <incar>
  <i type="string" name="SYSTEM">TiS3</i>
  <i type="string" name="PREC">high</i>
  <i type="int" name="IBRION">     2</i>
  <i name="EDIFF">      0.00000010</i>
  <i name="EDIFFG">     -0.00010000</i>
  <i type="int" name="NSW">     0</i>
  <i type="int" name="ISIF">     1</i>
  <i name="ENCUT">    500.00000000</i>
  <i type="int" name="ISMEAR">     0</i>
  <i name="SIGMA">      0.05000000</i>
  <i type="logical" name="LWAVE"> F  </i>
  <i type="logical" name="LCHARG"> F  </i>
  <v type="int" name="KPOINT_BSE">    -1     0     0     0</v>
  <i type="string" name="GGA">MK</i>
  <i name="PARAM1">      0.12340000</i>
  <i name="PARAM2">      1.00000000</i>
  <i type="logical" name="LUSE_VDW"> T  </i>
  <i name="AGGAC">      0.00000000</i>
 </incar>
 <kpoints>
  <generation param="Gamma">
   <v type="int" name="divisions">       3        3        2 </v>
   <v name="usershift">      0.00000000       0.00000000       0.00000000 </v>
   <v name="genvec1">      0.33333333       0.00000000       0.00000000 </v>
   <v name="genvec2">      0.00000000       0.33333333       0.00000000 </v>
   <v name="genvec3">     -0.00000000       0.00000000       0.50000000 </v>
   <v name="shift">      0.00000000       0.00000000       0.00000000 </v>
  </generation>
  <varray name="kpointlist" >
   <v>       0.00000000       0.00000000       0.00000000 </v>
   <v>       0.33333333       0.00000000      -0.00000000 </v>
   <v>       0.00000000       0.33333333       0.00000000 </v>
   <v>       0.33333333       0.33333333      -0.00000000 </v>
   <v>      -0.00000000       0.00000000       0.50000000 </v>
   <v>       0.33333333       0.00000000       0.50000000 </v>
   <v>      -0.00000000       0.33333333       0.50000000 </v>
   <v>       0.33333333       0.33333333       0.50000000 </v>
  </varray>
  <varray name="weights" >
   <v>       0.05555556 </v>
   <v>       0.11111111 </v>
   <v>       0.11111111 </v>
   <v>       0.22222222 </v>
   <v>       0.05555556 </v>
   <v>       0.11111111 </v>
   <v>       0.11111111 </v>
   <v>       0.22222222 </v>
  </varray>
 </kpoints>
 <parameters>
  <separator name="general" >
   <i type="string" name="SYSTEM">TiS3</i>
   <i type="logical" name="LCOMPAT"> F  </i>
  </separator>
  <separator name="electronic" >
   <i type="string" name="PREC">high</i>
   <i name="ENMAX">    500.00000000</i>
   <i name="ENAUG">    482.84800000</i>
   <i name="EDIFF">      0.00000010</i>
   <i type="int" name="IALGO">    38</i>
   <i type="int" name="IWAVPR">    10</i>
   <i type="int" name="NBANDS">   816</i>
   <i name="NELECT">   1344.00000000</i>
   <i type="int" name="TURBO">     0</i>
   <i type="int" name="IRESTART">     0</i>
   <i type="int" name="NREBOOT">     0</i>
   <i type="int" name="NMIN">     0</i>
   <i name="EREF">      0.00000000</i>
   <separator name="electronic smearing" >
    <i type="int" name="ISMEAR">     0</i>
    <i name="SIGMA">      0.05000000</i>
    <i name="KSPACING">      0.50000000</i>
    <i type="logical" name="KGAMMA"> T  </i>
   </separator>
   <separator name="electronic projectors" >
    <i type="logical" name="LREAL"> F  </i>
    <v name="ROPT">      0.00000000      0.00000000</v>
    <i type="int" name="LMAXPAW">  -100</i>
    <i type="int" name="LMAXMIX">     2</i>
    <i type="logical" name="NLSPLINE"> F  </i>
   </separator>
   <separator name="electronic startup" >
    <i type="int" name="ISTART">     0</i>
    <i type="int" name="ICHARG">     2</i>
    <i type="int" name="INIWAV">     1</i>
   </separator>
   <separator name="electronic spin" >
    <i type="int" name="ISPIN">     1</i>
    <i type="logical" name="LNONCOLLINEAR"> F  </i>
    <v name="MAGMOM">      1.00000000      1.00000000      1.00000000      1.00000000      1.00000000      1.00000000      1.00000000      1.00000000      1.00000000      1.00000000      1.00000000      1.00000000      1.00000000      1.00000000      1.00000000      1.00000000      1.00000000      1.00000000      1.00000000      1.00000000
      1.00000000      1.00000000      1.00000000      1.00000000      1.00000000      1.00000000      1.00000000      1.00000000      1.00000000      1.00000000      1.00000000      1.00000000      1.00000000      1.00000000      1.00000000      1.00000000      1.00000000      1.00000000      1.00000000      1.00000000
      1.00000000      1.00000000      1.00000000      1.00000000      1.00000000      1.00000000      1.00000000      1.00000000      1.00000000      1.00000000      1.00000000      1.00000000      1.00000000      1.00000000      1.00000000      1.00000000      1.00000000      1.00000000      1.00000000      1.00000000
      1.00000000      1.00000000      1.00000000      1.00000000      1.00000000      1.00000000      1.00000000      1.00000000      1.00000000      1.00000000      1.00000000      1.00000000      1.00000000      1.00000000      1.00000000      1.00000000      1.00000000      1.00000000      1.00000000      1.00000000
      1.00000000      1.00000000      1.00000000      1.00000000      1.00000000      1.00000000      1.00000000      1.00000000      1.00000000      1.00000000      1.00000000      1.00000000      1.00000000      1.00000000      1.00000000      1.00000000      1.00000000      1.00000000      1.00000000      1.00000000
      1.00000000      1.00000000      1.00000000      1.00000000      1.00000000      1.00000000      1.00000000      1.00000000      1.00000000      1.00000000      1.00000000      1.00000000      1.00000000      1.00000000      1.00000000      1.00000000      1.00000000      1.00000000      1.00000000      1.00000000
      1.00000000      1.00000000      1.00000000      1.00000000      1.00000000      1.00000000      1.00000000      1.00000000      1.00000000      1.00000000      1.00000000      1.00000000      1.00000000      1.00000000      1.00000000      1.00000000      1.00000000      1.00000000      1.00000000      1.00000000
      1.00000000      1.00000000      1.00000000      1.00000000      1.00000000      1.00000000      1.00000000      1.00000000      1.00000000      1.00000000      1.00000000      1.00000000      1.00000000      1.00000000      1.00000000      1.00000000      1.00000000      1.00000000      1.00000000      1.00000000
      1.00000000      1.00000000      1.00000000      1.00000000      1.00000000      1.00000000      1.00000000      1.00000000      1.00000000      1.00000000      1.00000000      1.00000000      1.00000000      1.00000000      1.00000000      1.00000000      1.00000000      1.00000000      1.00000000      1.00000000
      1.00000000      1.00000000      1.00000000      1.00000000      1.00000000      1.00000000      1.00000000      1.00000000      1.00000000      1.00000000      1.00000000      1.00000000</v>
    <i name="NUPDOWN">     -1.00000000</i>
    <i type="logical" name="LSORBIT"> F  </i>
    <v name="SAXIS">      0.00000000      0.00000000      1.00000000</v>
    <i type="logical" name="LSPIRAL"> F  </i>
    <v name="QSPIRAL">      0.00000000      0.00000000      0.00000000</v>
    <i type="logical" name="LZEROZ"> F  </i>
   </separator>
   <separator name="electronic exchange-correlation" >
    <i type="logical" name="LASPH"> F  </i>
    <i type="logical" name="LMETAGGA"> F  </i>
   </separator>
   <separator name="electronic convergence" >
    <i type="int" name="NELM">    60</i>
    <i type="int" name="NELMDL">    -5</i>
    <i type="int" name="NELMIN">     2</i>
    <i name="ENINI">    500.00000000</i>
    <separator name="electronic convergence detail" >
     <i type="logical" name="LDIAG"> T  </i>
     <i type="logical" name="LSUBROT"> F  </i>
     <i name="WEIMIN">      0.00000000</i>
     <i name="EBREAK">      0.00000000</i>
     <i name="DEPER">      0.30000000</i>
     <i type="int" name="NRMM">     4</i>
     <i name="TIME">      0.40000000</i>
    </separator>
   </separator>
   <separator name="electronic mixer" >
    <i name="AMIX">      0.40000000</i>
    <i name="BMIX">      1.00000000</i>
    <i name="AMIN">      0.10000000</i>
    <i name="AMIX_MAG">      1.60000000</i>
    <i name="BMIX_MAG">      1.00000000</i>
    <separator name="electronic mixer details" >
     <i type="int" name="IMIX">     4</i>
     <i type="logical" name="MIXFIRST"> F  </i>
     <i type="int" name="MAXMIX">   -45</i>
     <i name="WC">    100.00000000</i>
     <i type="int" name="INIMIX">     1</i>
     <i type="int" name="MIXPRE">     1</i>
     <i type="int" name="MREMOVE">     5</i>
    </separator>
   </separator>
   <separator name="electronic dipolcorrection" >
    <i type="logical" name="LDIPOL"> F  </i>
    <i type="logical" name="LMONO"> F  </i>
    <i type="int" name="IDIPOL">     0</i>
    <i name="EPSILON">      1.00000000</i>
    <v name="DIPOL">   -100.00000000   -100.00000000   -100.00000000</v>
    <i name="EFIELD">      0.00000000</i>
   </separator>
  </separator>
  <separator name="grids" >
   <i type="int" name="NGX">   112</i>
   <i type="int" name="NGY">   100</i>
   <i type="int" name="NGZ">   128</i>
   <i type="int" name="NGXF">   144</i>
   <i type="int" name="NGYF">   140</i>
   <i type="int" name="NGZF">   168</i>
   <i type="logical" name="ADDGRID"> F  </i>
  </separator>
  <separator name="ionic" >
   <i type="int" name="NSW">     0</i>
   <i type="int" name="IBRION">    -1</i>
   <i type="int" name="ISIF">     1</i>
   <i name="PSTRESS">      0.00000000</i>
   <i name="EDIFFG">     -0.00010000</i>
   <i type="int" name="NFREE">     1</i>
   <i name="POTIM">      0.50000000</i>
   <i name="SMASS">     -3.00000000</i>
   <i name="SCALEE">      1.00000000</i>
  </separator>
  <separator name="ionic md" >
   <i name="TEBEG">      0.00010000</i>
   <i name="TEEND">      0.00010000</i>
   <i type="int" name="NBLOCK">     1</i>
   <i type="int" name="KBLOCK">     1</i>
   <i type="int" name="NPACO">   256</i>
   <i name="APACO">     16.00000000</i>
  </separator>
  <separator name="symmetry" >
   <i type="int" name="ISYM">     2</i>
   <i name="SYMPREC">      0.00001000</i>
  </separator>
  <separator name="dos" >
   <i type="logical" name="LORBIT"> F  </i>
   <v name="RWIGS">     -1.00000000     -1.00000000</v>
   <i type="int" name="NEDOS">   301</i>
   <i name="EMIN">     10.00000000</i>
   <i name="EMAX">    -10.00000000</i>
   <i name="EFERMI">      0.00000000</i>
  </separator>
  <separator name="writing" >
   <i type="int" name="NWRITE">     2</i>
   <i type="logical" name="LWAVE"> F  </i>
   <i type="logical" name="LCHARG"> F  </i>
   <i type="logical" name="LPARD"> F  </i>
   <i type="logical" name="LVTOT"> F  </i>
   <i type="logical" name="LVHAR"> F  </i>
   <i type="logical" name="LELF"> F  </i>
   <i type="logical" name="LOPTICS"> F  </i>
   <v name="STM">      0.00000000      0.00000000      0.00000000      0.00000000      0.00000000      0.00000000      0.00000000</v>
  </separator>
  <separator name="performance" >
   <i type="int" name="NPAR">    12</i>
   <i type="int" name="NSIM">     4</i>
   <i type="int" name="NBLK">    -1</i>
   <i type="logical" name="LPLANE"> T  </i>
   <i type="logical" name="LSCALAPACK"> T  </i>
   <i type="logical" name="LSCAAWARE"> T  </i>
   <i type="logical" name="LSCALU"> F  </i>
   <i type="logical" name="LASYNC"> F  </i>
   <i type="logical" name="LORBITALREAL"> F  </i>
  </separator>
  <separator name="miscellaneous" >
   <i type="int" name="IDIOT">     3</i>
   <i type="logical" name="LMUSIC"> F  </i>
   <v name="POMASS">     47.88000000     32.06600000</v>
   <v name="DARWINR">      0.00000000      0.00000000</v>
   <v name="DARWINV">      1.00000000      1.00000000</v>
   <i type="logical" name="LCORR"> T  </i>
  </separator>
  <i type="logical" name="GGA_COMPAT"> T  </i>
  <i type="logical" name="LBERRY"> F  </i>
  <i type="int" name="ICORELEVEL">     0</i>
  <i type="logical" name="LDAU"> F  </i>
  <i type="int" name="I_CONSTRAINED_M">     0</i>
  <separator name="electronic exchange-correlation" >
   <i type="string" name="GGA">MK</i>
   <i type="int" name="VOSKOWN">     0</i>
   <i type="logical" name="LHFCALC"> F  </i>
   <i type="string" name="PRECFOCK"></i>
   <i type="logical" name="LSYMGRAD"> F  </i>
   <i type="logical" name="LHFONE"> F  </i>
   <i type="logical" name="LRHFCALC"> F  </i>
   <i type="logical" name="LTHOMAS"> F  </i>
   <i type="logical" name="LMODELHF"> F  </i>
   <i name="ENCUT4O">     -1.00000000</i>
   <i type="int" name="EXXOEP">     0</i>
   <i type="int" name="FOURORBIT">     0</i>
   <i name="AEXX">      0.00000000</i>
   <i name="HFALPHA">      0.00000000</i>
   <i name="MCALPHA">      0.00000000</i>
   <i name="ALDAX">      1.00000000</i>
   <i name="AGGAX">      1.00000000</i>
   <i name="ALDAC">      1.00000000</i>
   <i name="AGGAC">      0.00000000</i>
   <i type="int" name="NKREDX">     1</i>
   <i type="int" name="NKREDY">     1</i>
   <i type="int" name="NKREDZ">     1</i>
   <i type="logical" name="SHIFTRED"> F  </i>
   <i type="logical" name="ODDONLY"> F  </i>
   <i type="logical" name="EVENONLY"> F  </i>
   <i type="int" name="LMAXFOCK">     0</i>
   <i type="int" name="NMAXFOCKAE">     0</i>
   <i type="logical" name="LFOCKAEDFT"> F  </i>
   <i name="HFSCREEN">      0.00000000</i>
   <i name="HFSCREENC">      0.00000000</i>
   <i type="int" name="NBANDSGWLOW">     0</i>
  </separator>
  <separator name="vdW DFT" >
   <i type="logical" name="LUSE_VDW"> T  </i>
   <i name="Zab_VDW">     -0.84910000</i>
   <i name="PARAM1">      0.12340000</i>
   <i name="PARAM2">      1.00000000</i>
   <i name="PARAM3">      0.00000000</i>
  </separator>
  <separator name="model GW" >
   <i type="int" name="MODEL_GW">     0</i>
   <i name="MODEL_EPS0">     11.04301034</i>
   <i name="MODEL_ALPHA">      1.00000000</i>
  </separator>
  <separator name="linear response parameters" >
   <i type="logical" name="LEPSILON"> F  </i>
   <i type="logical" name="LRPA"> F  </i>
   <i type="logical" name="LNABLA"> F  </i>
   <i type="logical" name="LVEL"> F  </i>
   <i type="int" name="KINTER">     0</i>
   <i name="CSHIFT">      0.10000000</i>
   <i name="OMEGAMAX">     -1.00000000</i>
   <i name="DEG_THRESHOLD">      0.00200000</i>
  </separator>
  <separator name="orbital magnetization" >
   <i type="logical" name="NUCIND"> F  </i>
   <v name="MAGPOS">      0.00000000      0.00000000      0.00000000</v>
   <i type="logical" name="LNICSALL"> T  </i>
   <i type="logical" name="ORBITALMAG"> F  </i>
   <i type="logical" name="LMAGBLOCH"> F  </i>
   <i type="logical" name="LCHIMAG"> F  </i>
   <i type="logical" name="LGAUGE"> T  </i>
   <i type="int" name="MAGATOM">     0</i>
   <v name="MAGDIPOL">      0.00000000      0.00000000      0.00000000</v>
   <v name="AVECCONST">      0.00000000      0.00000000      0.00000000</v>
  </separator>
  <separator name="response functions" >
   <i type="logical" name="LADDER"> F  </i>
   <i type="logical" name="LFXC"> F  </i>
   <i type="logical" name="LHARTREE"> T  </i>
   <i type="int" name="IBSE">     0</i>
   <v type="int" name="KPOINT">    -1     0     0     0</v>
   <i type="logical" name="LTCTE"> F  </i>
   <i type="logical" name="LTETE"> F  </i>
   <i type="logical" name="LTRIPLET"> F  </i>
   <i type="logical" name="LFXCEPS"> F  </i>
   <i type="logical" name="LFXHEG"> F  </i>
   <i type="int" name="NATURALO">     0</i>
   <i type="logical" name="L2ORDER"> F  </i>
   <i type="logical" name="LUSEW"> F  </i>
   <i name="ENCUTGW">     -2.00000000</i>
   <i name="ENCUTGWSOFT">     -2.00000000</i>
   <i name="ENCUTLF">     -1.00000000</i>
   <i type="int" name="LMAXMP2">    -1</i>
   <i name="SCISSOR">      0.00000000</i>
   <i type="int" name="NOMEGA">     0</i>
   <i type="int" name="NOMEGAR">     0</i>
   <i type="int" name="NBANDSGW">    -1</i>
   <i type="int" name="NBANDSO">    -1</i>
   <i type="int" name="NBANDSV">    -1</i>
   <i type="int" name="NELM">     1</i>
   <i type="int" name="NELMHF">     1</i>
   <i type="int" name="DIM">     3</i>
   <i type="int" name="ANTIRES">     0</i>
   <i name="OMEGAMAX">    -30.00000000</i>
   <i name="OMEGAMIN">    -30.00000000</i>
   <i name="OMEGATL">   -200.00000000</i>
   <i type="int" name="OMEGAGRID">     0</i>
   <i name="CSHIFT">     -0.10000000</i>
   <i type="logical" name="SELFENERGY"> F  </i>
   <i type="logical" name="LSPECTRAL"> F  </i>
   <i type="logical" name="LSPECTRALGW"> F  </i>
   <i type="logical" name="LSINGLES"> F  </i>
   <i type="logical" name="LFERMIGW"> F  </i>
   <i type="logical" name="ODDONLYGW"> F  </i>
   <i type="logical" name="EVENONLYGW"> F  </i>
   <i type="int" name="NKREDLFX">     1</i>
   <i type="int" name="NKREDLFY">     1</i>
   <i type="int" name="NKREDLFZ">     1</i>
   <i type="int" name="MAXMEM">  1800</i>
   <i type="int" name="TELESCOPE">     0</i>
   <i type="int" name="TAUPAR">     1</i>
   <i type="int" name="OMEGAPAR">    -1</i>
   <i name="LAMBDA">      1.00000000</i>
  </separator>
  <separator name="External order field" >
   <i name="OFIELD_KAPPA">      0.00000000</i>
   <v name="OFIELD_K">      0.00000000      0.00000000      0.00000000</v>
   <i name="OFIELD_Q6_NEAR">      0.00000000</i>
   <i name="OFIELD_Q6_FAR">      0.00000000</i>
   <i name="OFIELD_A">      0.00000000</i>
  </separator>
 </parameters>
 <atominfo>
  <atoms>     192 </atoms>
  <types>       2 </types>
  <array name="atoms" >
   <dimension dim="1">ion</dimension>
   <field type="string">element</field>
   <field type="int">atomtype</field>
   <set>
    <rc><c>Ti</c><c>   1</c></rc>
    <rc><c>Ti</c><c>   1</c></rc>
    <rc><c>Ti</c><c>   1</c></rc>
    <rc><c>Ti</c><c>   1</c></rc>
    <rc><c>Ti</c><c>   1</c></rc>
    <rc><c>Ti</c><c>   1</c></rc>
    <rc><c>Ti</c><c>   1</c></rc>
    <rc><c>Ti</c><c>   1</c></rc>
    <rc><c>Ti</c><c>   1</c></rc>
    <rc><c>Ti</c><c>   1</c></rc>
    <rc><c>Ti</c><c>   1</c></rc>
    <rc><c>Ti</c><c>   1</c></rc>
    <rc><c>Ti</c><c>   1</c></rc>
    <rc><c>Ti</c><c>   1</c></rc>
    <rc><c>Ti</c><c>   1</c></rc>
    <rc><c>Ti</c><c>   1</c></rc>
    <rc><c>Ti</c><c>   1</c></rc>
    <rc><c>Ti</c><c>   1</c></rc>
    <rc><c>Ti</c><c>   1</c></rc>
    <rc><c>Ti</c><c>   1</c></rc>
    <rc><c>Ti</c><c>   1</c></rc>
    <rc><c>Ti</c><c>   1</c></rc>
    <rc><c>Ti</c><c>   1</c></rc>
    <rc><c>Ti</c><c>   1</c></rc>
    <rc><c>Ti</c><c>   1</c></rc>
    <rc><c>Ti</c><c>   1</c></rc>
    <rc><c>Ti</c><c>   1</c></rc>
    <rc><c>Ti</c><c>   1</c></rc>
    <rc><c>Ti</c><c>   1</c></rc>
    <rc><c>Ti</c><c>   1</c></rc>
    <rc><c>Ti</c><c>   1</c></rc>
    <rc><c>Ti</c><c>   1</c></rc>
    <rc><c>Ti</c><c>   1</c></rc>
    <rc><c>Ti</c><c>   1</c></rc>
    <rc><c>Ti</c><c>   1</c></rc>
    <rc><c>Ti</c><c>   1</c></rc>
    <rc><c>Ti</c><c>   1</c></rc>
    <rc><c>Ti</c><c>   1</c></rc>
    <rc><c>Ti</c><c>   1</c></rc>
    <rc><c>Ti</c><c>   1</c></rc>
    <rc><c>Ti</c><c>   1</c></rc>
    <rc><c>Ti</c><c>   1</c></rc>
    <rc><c>Ti</c><c>   1</c></rc>
    <rc><c>Ti</c><c>   1</c></rc>
    <rc><c>Ti</c><c>   1</c></rc>
    <rc><c>Ti</c><c>   1</c></rc>
    <rc><c>Ti</c><c>   1</c></rc>
    <rc><c>Ti</c><c>   1</c></rc>
    <rc><c>S </c><c>   2</c></rc>
    <rc><c>S </c><c>   2</c></rc>
    <rc><c>S </c><c>   2</c></rc>
    <rc><c>S </c><c>   2</c></rc>
    <rc><c>S </c><c>   2</c></rc>
    <rc><c>S </c><c>   2</c></rc>
    <rc><c>S </c><c>   2</c></rc>
    <rc><c>S </c><c>   2</c></rc>
    <rc><c>S </c><c>   2</c></rc>
    <rc><c>S </c><c>   2</c></rc>
    <rc><c>S </c><c>   2</c></rc>
    <rc><c>S </c><c>   2</c></rc>
    <rc><c>S </c><c>   2</c></rc>
    <rc><c>S </c><c>   2</c></rc>
    <rc><c>S </c><c>   2</c></rc>
    <rc><c>S </c><c>   2</c></rc>
    <rc><c>S </c><c>   2</c></rc>
    <rc><c>S </c><c>   2</c></rc>
    <rc><c>S </c><c>   2</c></rc>
    <rc><c>S </c><c>   2</c></rc>
    <rc><c>S </c><c>   2</c></rc>
    <rc><c>S </c><c>   2</c></rc>
    <rc><c>S </c><c>   2</c></rc>
    <rc><c>S </c><c>   2</c></rc>
    <rc><c>S </c><c>   2</c></rc>
    <rc><c>S </c><c>   2</c></rc>
    <rc><c>S </c><c>   2</c></rc>
    <rc><c>S </c><c>   2</c></rc>
    <rc><c>S </c><c>   2</c></rc>
    <rc><c>S </c><c>   2</c></rc>
    <rc><c>S </c><c>   2</c></rc>
    <rc><c>S </c><c>   2</c></rc>
    <rc><c>S </c><c>   2</c></rc>
    <rc><c>S </c><c>   2</c></rc>
    <rc><c>S </c><c>   2</c></rc>
    <rc><c>S </c><c>   2</c></rc>
    <rc><c>S </c><c>   2</c></rc>
    <rc><c>S </c><c>   2</c></rc>
    <rc><c>S </c><c>   2</c></rc>
    <rc><c>S </c><c>   2</c></rc>
    <rc><c>S </c><c>   2</c></rc>
    <rc><c>S </c><c>   2</c></rc>
    <rc><c>S </c><c>   2</c></rc>
    <rc><c>S </c><c>   2</c></rc>
    <rc><c>S </c><c>   2</c></rc>
    <rc><c>S </c><c>   2</c></rc>
    <rc><c>S </c><c>   2</c></rc>
    <rc><c>S </c><c>   2</c></rc>
    <rc><c>S </c><c>   2</c></rc>
    <rc><c>S </c><c>   2</c></rc>
    <rc><c>S </c><c>   2</c></rc>
    <rc><c>S </c><c>   2</c></rc>
    <rc><c>S </c><c>   2</c></rc>
    <rc><c>S </c><c>   2</c></rc>
    <rc><c>S </c><c>   2</c></rc>
    <rc><c>S </c><c>   2</c></rc>
    <rc><c>S </c><c>   2</c></rc>
    <rc><c>S </c><c>   2</c></rc>
    <rc><c>S </c><c>   2</c></rc>
    <rc><c>S </c><c>   2</c></rc>
    <rc><c>S </c><c>   2</c></rc>
    <rc><c>S </c><c>   2</c></rc>
    <rc><c>S </c><c>   2</c></rc>
    <rc><c>S </c><c>   2</c></rc>
    <rc><c>S </c><c>   2</c></rc>
    <rc><c>S </c><c>   2</c></rc>
    <rc><c>S </c><c>   2</c></rc>
    <rc><c>S </c><c>   2</c></rc>
    <rc><c>S </c><c>   2</c></rc>
    <rc><c>S </c><c>   2</c></rc>
    <rc><c>S </c><c>   2</c></rc>
    <rc><c>S </c><c>   2</c></rc>
    <rc><c>S </c><c>   2</c></rc>
    <rc><c>S </c><c>   2</c></rc>
    <rc><c>S </c><c>   2</c></rc>
    <rc><c>S </c><c>   2</c></rc>
    <rc><c>S </c><c>   2</c></rc>
    <rc><c>S </c><c>   2</c></rc>
    <rc><c>S </c><c>   2</c></rc>
    <rc><c>S </c><c>   2</c></rc>
    <rc><c>S </c><c>   2</c></rc>
    <rc><c>S </c><c>   2</c></rc>
    <rc><c>S </c><c>   2</c></rc>
    <rc><c>S </c><c>   2</c></rc>
    <rc><c>S </c><c>   2</c></rc>
    <rc><c>S </c><c>   2</c></rc>
    <rc><c>S </c><c>   2</c></rc>
    <rc><c>S </c><c>   2</c></rc>
    <rc><c>S </c><c>   2</c></rc>
    <rc><c>S </c><c>   2</c></rc>
    <rc><c>S </c><c>   2</c></rc>
    <rc><c>S </c><c>   2</c></rc>
    <rc><c>S </c><c>   2</c></rc>
    <rc><c>S </c><c>   2</c></rc>
    <rc><c>S </c><c>   2</c></rc>
    <rc><c>S </c><c>   2</c></rc>
    <rc><c>S </c><c>   2</c></rc>
    <rc><c>S </c><c>   2</c></rc>
    <rc><c>S </c><c>   2</c></rc>
    <rc><c>S </c><c>   2</c></rc>
    <rc><c>S </c><c>   2</c></rc>
    <rc><c>S </c><c>   2</c></rc>
    <rc><c>S </c><c>   2</c></rc>
    <rc><c>S </c><c>   2</c></rc>
    <rc><c>S </c><c>   2</c></rc>
    <rc><c>S </c><c>   2</c></rc>
    <rc><c>S </c><c>   2</c></rc>
    <rc><c>S </c><c>   2</c></rc>
    <rc><c>S </c><c>   2</c></rc>
    <rc><c>S </c><c>   2</c></rc>
    <rc><c>S </c><c>   2</c></rc>
    <rc><c>S </c><c>   2</c></rc>
    <rc><c>S </c><c>   2</c></rc>
    <rc><c>S </c><c>   2</c></rc>
    <rc><c>S </c><c>   2</c></rc>
    <rc><c>S </c><c>   2</c></rc>
    <rc><c>S </c><c>   2</c></rc>
    <rc><c>S </c><c>   2</c></rc>
    <rc><c>S </c><c>   2</c></rc>
    <rc><c>S </c><c>   2</c></rc>
    <rc><c>S </c><c>   2</c></rc>
    <rc><c>S </c><c>   2</c></rc>
    <rc><c>S </c><c>   2</c></rc>
    <rc><c>S </c><c>   2</c></rc>
    <rc><c>S </c><c>   2</c></rc>
    <rc><c>S </c><c>   2</c></rc>
    <rc><c>S </c><c>   2</c></rc>
    <rc><c>S </c><c>   2</c></rc>
    <rc><c>S </c><c>   2</c></rc>
    <rc><c>S </c><c>   2</c></rc>
    <rc><c>S </c><c>   2</c></rc>
    <rc><c>S </c><c>   2</c></rc>
    <rc><c>S </c><c>   2</c></rc>
    <rc><c>S </c><c>   2</c></rc>
    <rc><c>S </c><c>   2</c></rc>
    <rc><c>S </c><c>   2</c></rc>
    <rc><c>S </c><c>   2</c></rc>
    <rc><c>S </c><c>   2</c></rc>
    <rc><c>S </c><c>   2</c></rc>
    <rc><c>S </c><c>   2</c></rc>
    <rc><c>S </c><c>   2</c></rc>
    <rc><c>S </c><c>   2</c></rc>
    <rc><c>S </c><c>   2</c></rc>
    <rc><c>S </c><c>   2</c></rc>
   </set>
  </array>
  <array name="atomtypes" >
   <dimension dim="1">type</dimension>
   <field type="int">atomspertype</field>
   <field type="string">element</field>
   <field>mass</field>
   <field>valence</field>
   <field type="string">pseudopotential</field>
   <set>
    <rc><c>  48</c><c>Ti</c><c>     47.88000000</c><c>     10.00000000</c><c> PAW_PBE Ti_pv 07Sep2000                </c></rc>
    <rc><c> 144</c><c>S </c><c>     32.06600000</c><c>      6.00000000</c><c>  PAW_PBE S 17Jan2003                   </c></rc>
   </set>
  </array>
 </atominfo>
 <structure name="initialpos" >
  <crystal>
   <varray name="basis" >
    <v>      14.92122653       0.00000000       0.04843544 </v>
    <v>       0.00000000      13.57115863       0.00000000 </v>
    <v>      -2.27411844       0.00000000      17.44344477 </v>
   </varray>
   <i name="volume">   3533.76330872 </i>
   <varray name="rec_basis" >
    <v>       0.06699027       0.00000000       0.00873358 </v>
    <v>       0.00000000       0.07368568       0.00000000 </v>
    <v>      -0.00018601       0.00000000       0.05730388 </v>
   </varray>
  </crystal>
  <varray name="positions" >
   <v>       0.09466029       0.06250000       0.07664137 </v>
   <v>       0.42799362       0.06250000       0.07664137 </v>
   <v>       0.76132696       0.06250000       0.07664137 </v>
   <v>       0.09466029       0.31250000       0.07664137 </v>
   <v>       0.42799362       0.31250000       0.07664137 </v>
   <v>       0.76132696       0.31250000       0.07664137 </v>
   <v>       0.09466029       0.56250000       0.07664137 </v>
   <v>       0.42799362       0.56250000       0.07664137 </v>
   <v>       0.76132696       0.56250000       0.07664137 </v>
   <v>       0.09466029       0.81250000       0.07664137 </v>
   <v>       0.42799362       0.81250000       0.07664137 </v>
   <v>       0.76132696       0.81250000       0.07664137 </v>
   <v>       0.09466029       0.06250000       0.57664137 </v>
   <v>       0.42799362       0.06250000       0.57664137 </v>
   <v>       0.76132696       0.06250000       0.57664137 </v>
   <v>       0.09466029       0.31250000       0.57664137 </v>
   <v>       0.42799362       0.31250000       0.57664137 </v>
   <v>       0.76132696       0.31250000       0.57664137 </v>
   <v>       0.09466029       0.56250000       0.57664137 </v>
   <v>       0.42799362       0.56250000       0.57664137 </v>
   <v>       0.76132696       0.56250000       0.57664137 </v>
   <v>       0.09466029       0.81250000       0.57664137 </v>
   <v>       0.42799362       0.81250000       0.57664137 </v>
   <v>       0.76132696       0.81250000       0.57664137 </v>
   <v>       0.23867305       0.18750000       0.42335862 </v>
   <v>       0.57200639       0.18750000       0.42335862 </v>
   <v>       0.90533972       0.18750000       0.42335862 </v>
   <v>       0.23867305       0.43750000       0.42335862 </v>
   <v>       0.57200639       0.43750000       0.42335862 </v>
   <v>       0.90533972       0.43750000       0.42335862 </v>
   <v>       0.23867305       0.68750000       0.42335862 </v>
   <v>       0.57200639       0.68750000       0.42335862 </v>
   <v>       0.90533972       0.68750000       0.42335862 </v>
   <v>       0.23867305       0.93750000       0.42335862 </v>
   <v>       0.57200639       0.93750000       0.42335862 </v>
   <v>       0.90533972       0.93750000       0.42335862 </v>
   <v>       0.23867305       0.18750000       0.92335862 </v>
   <v>       0.57200639       0.18750000       0.92335862 </v>
   <v>       0.90533972       0.18750000       0.92335862 </v>
   <v>       0.23867305       0.43750000       0.92335862 </v>
   <v>       0.57200639       0.43750000       0.92335862 </v>
   <v>       0.90533972       0.43750000       0.92335862 </v>
   <v>       0.23867305       0.68750000       0.92335862 </v>
   <v>       0.57200639       0.68750000       0.92335862 </v>
   <v>       0.90533972       0.68750000       0.92335862 </v>
   <v>       0.23867305       0.93750000       0.92335862 </v>
   <v>       0.57200639       0.93750000       0.92335862 </v>
   <v>       0.90533972       0.93750000       0.92335862 </v>
   <v>       0.15632463       0.06250000       0.33843891 </v>
   <v>       0.48965796       0.06250000       0.33843891 </v>
   <v>       0.82299129       0.06250000       0.33843891 </v>
   <v>       0.15632463       0.31250000       0.33843891 </v>
   <v>       0.48965796       0.31250000       0.33843891 </v>
   <v>       0.82299129       0.31250000       0.33843891 </v>
   <v>       0.15632463       0.56250000       0.33843891 </v>
   <v>       0.48965796       0.56250000       0.33843891 </v>
   <v>       0.82299129       0.56250000       0.33843891 </v>
   <v>       0.15632463       0.81250000       0.33843891 </v>
   <v>       0.48965796       0.81250000       0.33843891 </v>
   <v>       0.82299129       0.81250000       0.33843891 </v>
   <v>       0.15632463       0.06250000       0.83843891 </v>
   <v>       0.48965796       0.06250000       0.83843891 </v>
   <v>       0.82299129       0.06250000       0.83843891 </v>
   <v>       0.15632463       0.31250000       0.83843891 </v>
   <v>       0.48965796       0.31250000       0.83843891 </v>
   <v>       0.82299129       0.31250000       0.83843891 </v>
   <v>       0.15632463       0.56250000       0.83843891 </v>
   <v>       0.48965796       0.56250000       0.83843891 </v>
   <v>       0.82299129       0.56250000       0.83843891 </v>
   <v>       0.15632463       0.81250000       0.83843891 </v>
   <v>       0.48965796       0.81250000       0.83843891 </v>
   <v>       0.82299129       0.81250000       0.83843891 </v>
   <v>       0.17700870       0.18750000       0.16156109 </v>
   <v>       0.51034203       0.18750000       0.16156109 </v>
   <v>       0.84367536       0.18750000       0.16156109 </v>
   <v>       0.17700870       0.43750000       0.16156109 </v>
   <v>       0.51034203       0.43750000       0.16156109 </v>
   <v>       0.84367536       0.43750000       0.16156109 </v>
   <v>       0.17700870       0.68750000       0.16156109 </v>
   <v>       0.51034203       0.68750000       0.16156109 </v>
   <v>       0.84367536       0.68750000       0.16156109 </v>
   <v>       0.17700870       0.93750000       0.16156109 </v>
   <v>       0.51034203       0.93750000       0.16156109 </v>
   <v>       0.84367536       0.93750000       0.16156109 </v>
   <v>       0.17700870       0.18750000       0.66156109 </v>
   <v>       0.51034203       0.18750000       0.66156109 </v>
   <v>       0.84367536       0.18750000       0.66156109 </v>
   <v>       0.17700870       0.43750000       0.66156109 </v>
   <v>       0.51034203       0.43750000       0.66156109 </v>
   <v>       0.84367536       0.43750000       0.66156109 </v>
   <v>       0.17700870       0.68750000       0.66156109 </v>
   <v>       0.51034203       0.68750000       0.66156109 </v>
   <v>       0.84367536       0.68750000       0.66156109 </v>
   <v>       0.17700870       0.93750000       0.66156109 </v>
   <v>       0.51034203       0.93750000       0.66156109 </v>
   <v>       0.84367536       0.93750000       0.66156109 </v>
   <v>       0.25395456       0.06250000       0.02552059 </v>
   <v>       0.58728789       0.06250000       0.02552059 </v>
   <v>       0.92062122       0.06250000       0.02552059 </v>
   <v>       0.25395456       0.31250000       0.02552059 </v>
   <v>       0.58728789       0.31250000       0.02552059 </v>
   <v>       0.92062122       0.31250000       0.02552059 </v>
   <v>       0.25395456       0.56250000       0.02552059 </v>
   <v>       0.58728789       0.56250000       0.02552059 </v>
   <v>       0.92062122       0.56250000       0.02552059 </v>
   <v>       0.25395456       0.81250000       0.02552059 </v>
   <v>       0.58728789       0.81250000       0.02552059 </v>
   <v>       0.92062122       0.81250000       0.02552059 </v>
   <v>       0.25395456       0.06250000       0.52552059 </v>
   <v>       0.58728789       0.06250000       0.52552059 </v>
   <v>       0.92062122       0.06250000       0.52552059 </v>
   <v>       0.25395456       0.31250000       0.52552059 </v>
   <v>       0.58728789       0.31250000       0.52552059 </v>
   <v>       0.92062122       0.31250000       0.52552059 </v>
   <v>       0.25395456       0.56250000       0.52552059 </v>
   <v>       0.58728789       0.56250000       0.52552059 </v>
   <v>       0.92062122       0.56250000       0.52552059 </v>
   <v>       0.25395456       0.81250000       0.52552059 </v>
   <v>       0.58728789       0.81250000       0.52552059 </v>
   <v>       0.92062122       0.81250000       0.52552059 </v>
   <v>       0.07937878       0.18750000       0.47447941 </v>
   <v>       0.41271211       0.18750000       0.47447941 </v>
   <v>       0.74604544       0.18750000       0.47447941 </v>
   <v>       0.07937878       0.43750000       0.47447941 </v>
   <v>       0.41271211       0.43750000       0.47447941 </v>
   <v>       0.74604544       0.43750000       0.47447941 </v>
   <v>       0.07937878       0.68750000       0.47447941 </v>
   <v>       0.41271211       0.68750000       0.47447941 </v>
   <v>       0.74604544       0.68750000       0.47447941 </v>
   <v>       0.07937878       0.93750000       0.47447941 </v>
   <v>       0.41271211       0.93750000       0.47447941 </v>
   <v>       0.74604544       0.93750000       0.47447941 </v>
   <v>       0.07937878       0.18750000       0.97447941 </v>
   <v>       0.41271211       0.18750000       0.97447941 </v>
   <v>       0.74604544       0.18750000       0.97447941 </v>
   <v>       0.07937878       0.43750000       0.97447941 </v>
   <v>       0.41271211       0.43750000       0.97447941 </v>
   <v>       0.74604544       0.43750000       0.97447941 </v>
   <v>       0.07937878       0.68750000       0.97447941 </v>
   <v>       0.41271211       0.68750000       0.97447941 </v>
   <v>       0.74604544       0.68750000       0.97447941 </v>
   <v>       0.07937878       0.93750000       0.97447941 </v>
   <v>       0.41271211       0.93750000       0.97447941 </v>
   <v>       0.74604544       0.93750000       0.97447941 </v>
   <v>       0.29356623       0.06250000       0.33636826 </v>
   <v>       0.62689957       0.06250000       0.33636826 </v>
   <v>       0.96023290       0.06250000       0.33636826 </v>
   <v>       0.29356623       0.31250000       0.33636826 </v>
   <v>       0.62689957       0.31250000       0.33636826 </v>
   <v>       0.96023290       0.31250000       0.33636826 </v>
   <v>       0.29356623       0.56250000       0.33636826 </v>
   <v>       0.62689957       0.56250000       0.33636826 </v>
   <v>       0.96023290       0.56250000       0.33636826 </v>
   <v>       0.29356623       0.81250000       0.33636826 </v>
   <v>       0.62689957       0.81250000       0.33636826 </v>
   <v>       0.96023290       0.81250000       0.33636826 </v>
   <v>       0.29356623       0.06250000       0.83636826 </v>
   <v>       0.62689957       0.06250000       0.83636826 </v>
   <v>       0.96023290       0.06250000       0.83636826 </v>
   <v>       0.29356623       0.31250000       0.83636826 </v>
   <v>       0.62689957       0.31250000       0.83636826 </v>
   <v>       0.96023290       0.31250000       0.83636826 </v>
   <v>       0.29356623       0.56250000       0.83636826 </v>
   <v>       0.62689957       0.56250000       0.83636826 </v>
   <v>       0.96023290       0.56250000       0.83636826 </v>
   <v>       0.29356623       0.81250000       0.83636826 </v>
   <v>       0.62689957       0.81250000       0.83636826 </v>
   <v>       0.96023290       0.81250000       0.83636826 </v>
   <v>       0.03976710       0.18750000       0.16363174 </v>
   <v>       0.37310043       0.18750000       0.16363174 </v>
   <v>       0.70643377       0.18750000       0.16363174 </v>
   <v>       0.03976710       0.43750000       0.16363174 </v>
   <v>       0.37310043       0.43750000       0.16363174 </v>
   <v>       0.70643377       0.43750000       0.16363174 </v>
   <v>       0.03976710       0.68750000       0.16363174 </v>
   <v>       0.37310043       0.68750000       0.16363174 </v>
   <v>       0.70643377       0.68750000       0.16363174 </v>
   <v>       0.03976710       0.93750000       0.16363174 </v>
   <v>       0.37310043       0.93750000       0.16363174 </v>
   <v>       0.70643377       0.93750000       0.16363174 </v>
   <v>       0.03976710       0.18750000       0.66363174 </v>
   <v>       0.37310043       0.18750000       0.66363174 </v>
   <v>       0.70643377       0.18750000       0.66363174 </v>
   <v>       0.03976710       0.43750000       0.66363174 </v>
   <v>       0.37310043       0.43750000       0.66363174 </v>
   <v>       0.70643377       0.43750000       0.66363174 </v>
   <v>       0.03976710       0.68750000       0.66363174 </v>
   <v>       0.37310043       0.68750000       0.66363174 </v>
   <v>       0.70643377       0.68750000       0.66363174 </v>
   <v>       0.03976710       0.93750000       0.66363174 </v>
   <v>       0.37310043       0.93750000       0.66363174 </v>
   <v>       0.70643377       0.93750000       0.66363174 </v>
  </varray>
 </structure>
 <calculation>
  <scstep>
   <time name="dav">  102.63  104.25</time>
   <time name="total">  104.33  106.19</time>
   <energy>
    <i name="alphaZ">   3368.49079093 </i>
    <i name="ewald"> -65711.46996980 </i>
    <i name="hartreedc"> -24761.50845267 </i>
    <i name="XCdc">   3498.57901824 </i>
    <i name="pawpsdc">  48554.82035322 </i>
    <i name="pawaedc"> -47973.92911928 </i>
    <i name="eentropy">     -0.09572661 </i>
    <i name="bandstr">   9207.48579709 </i>
    <i name="atom">  90010.05447917 </i>
    <i name="e_fr_energy">  16192.42717031 </i>
    <i name="e_wo_entrp">  16192.52289691 </i>
    <i name="e_0_energy">  16192.47503361 </i>
   </energy>
  </scstep>
  <scstep>
   <time name="dav">   96.80   97.07</time>
   <time name="total">   96.80   97.09</time>
   <energy>
    <i name="e_fr_energy">   1785.16534478 </i>
    <i name="e_wo_entrp">   1785.30182788 </i>
    <i name="e_0_energy">   1785.23358633 </i>
   </energy>
  </scstep>
  <scstep>
   <time name="dav">  121.53  121.87</time>
   <time name="total">  121.53  121.88</time>
   <energy>
    <i name="e_fr_energy">   -960.93630541 </i>
    <i name="e_wo_entrp">   -960.93630541 </i>
    <i name="e_0_energy">   -960.93630541 </i>
   </energy>
  </scstep>
  <scstep>
   <time name="dav">  118.10  118.56</time>
   <time name="total">  118.11  118.57</time>
   <energy>
    <i name="e_fr_energy">  -1188.87541925 </i>
    <i name="e_wo_entrp">  -1188.87541925 </i>
    <i name="e_0_energy">  -1188.87541925 </i>
   </energy>
  </scstep>
  <scstep>
   <time name="dav">  122.89  123.17</time>
   <time name="total">  125.23  126.39</time>
   <energy>
    <i name="e_fr_energy">  -1194.94560942 </i>
    <i name="e_wo_entrp">  -1194.94560942 </i>
    <i name="e_0_energy">  -1194.94560942 </i>
   </energy>
  </scstep>
  <scstep>
   <time name="dav">  123.93  124.41</time>
   <time name="total">  127.50  128.22</time>
   <energy>
    <i name="e_fr_energy">  -1091.23835057 </i>
    <i name="e_wo_entrp">  -1091.20066974 </i>
    <i name="e_0_energy">  -1091.21951016 </i>
   </energy>
  </scstep>
  <scstep>
   <time name="dav">  127.44  127.80</time>
   <time name="total">  130.97  131.39</time>
   <energy>
    <i name="e_fr_energy">  -1046.20481684 </i>
    <i name="e_wo_entrp">  -1046.20481684 </i>
    <i name="e_0_energy">  -1046.20481684 </i>
   </energy>
  </scstep>
  <scstep>
   <time name="dav">  118.76  119.10</time>
   <time name="total">  122.38  122.81</time>
   <energy>
    <i name="e_fr_energy">  -1034.84224474 </i>
    <i name="e_wo_entrp">  -1034.84221953 </i>
    <i name="e_0_energy">  -1034.84223214 </i>
   </energy>
  </scstep>
  <scstep>
   <time name="dav">  125.15  125.41</time>
   <time name="total">  128.66  129.07</time>
   <energy>
    <i name="e_fr_energy">  -1034.71174088 </i>
    <i name="e_wo_entrp">  -1034.71169612 </i>
    <i name="e_0_energy">  -1034.71171850 </i>
   </energy>
  </scstep>
  <scstep>
   <time name="dav">  120.82  121.15</time>
   <time name="total">  124.40  124.75</time>
   <energy>
    <i name="e_fr_energy">  -1034.69100698 </i>
    <i name="e_wo_entrp">  -1034.69100405 </i>
    <i name="e_0_energy">  -1034.69100552 </i>
   </energy>
  </scstep>
  <scstep>
   <time name="dav">  124.49  124.86</time>
   <time name="total">  128.03  128.83</time>
   <energy>
    <i name="e_fr_energy">  -1034.67927262 </i>
    <i name="e_wo_entrp">  -1034.67923633 </i>
    <i name="e_0_energy">  -1034.67925447 </i>
   </energy>
  </scstep>
  <scstep>
   <time name="dav">  124.16  124.41</time>
   <time name="total">  127.70  130.01</time>
   <energy>
    <i name="e_fr_energy">  -1034.65275368 </i>
    <i name="e_wo_entrp">  -1034.65274742 </i>
    <i name="e_0_energy">  -1034.65275055 </i>
   </energy>
  </scstep>
  <scstep>
   <time name="dav">  120.60  121.07</time>
   <time name="total">  124.15  124.63</time>
   <energy>
    <i name="e_fr_energy">  -1034.64607546 </i>
    <i name="e_wo_entrp">  -1034.64606671 </i>
    <i name="e_0_energy">  -1034.64607108 </i>
   </energy>
  </scstep>
  <scstep>
   <time name="dav">  124.61  124.97</time>
   <time name="total">  128.15  128.53</time>
   <energy>
    <i name="e_fr_energy">  -1034.64630824 </i>
    <i name="e_wo_entrp">  -1034.64629872 </i>
    <i name="e_0_energy">  -1034.64630348 </i>
   </energy>
  </scstep>
  <scstep>
   <time name="dav">  123.74  124.00</time>
   <time name="total">  127.28  129.54</time>
   <energy>
    <i name="e_fr_energy">  -1034.64612078 </i>
    <i name="e_wo_entrp">  -1034.64611170 </i>
    <i name="e_0_energy">  -1034.64611624 </i>
   </energy>
  </scstep>
  <scstep>
   <time name="dav">  122.71  123.73</time>
   <time name="total">  126.26  127.32</time>
   <energy>
    <i name="e_fr_energy">  -1034.64612877 </i>
    <i name="e_wo_entrp">  -1034.64611954 </i>
    <i name="e_0_energy">  -1034.64612416 </i>
   </energy>
  </scstep>
  <scstep>
   <time name="dav">  122.56  122.91</time>
   <time name="total">  126.12  126.48</time>
   <energy>
    <i name="e_fr_energy">  -1034.64612674 </i>
    <i name="e_wo_entrp">  -1034.64611760 </i>
    <i name="e_0_energy">  -1034.64612217 </i>
   </energy>
  </scstep>
  <scstep>
   <time name="dav">  118.88  119.36</time>
   <time name="total">  122.43  122.93</time>
   <energy>
    <i name="e_fr_energy">  -1034.64612617 </i>
    <i name="e_wo_entrp">  -1034.64611699 </i>
    <i name="e_0_energy">  -1034.64612158 </i>
   </energy>
  </scstep>
  <scstep>
   <time name="dav">   87.61   87.79</time>
   <time name="total">   91.16   91.35</time>
   <energy>
    <i name="e_fr_energy">  -1034.64612633 </i>
    <i name="e_wo_entrp">  -1034.64611715 </i>
    <i name="e_0_energy">  -1034.64612174 </i>
   </energy>
  </scstep>
  <scstep>
   <time name="dav">   75.06   75.27</time>
   <time name="total">   76.32   76.54</time>
   <energy>
    <i name="alphaZ">   3368.49079093 </i>
    <i name="ewald"> -65711.46996980 </i>
    <i name="hartreedc"> -23902.24495805 </i>
    <i name="XCdc">   3481.82215694 </i>
    <i name="pawpsdc">  49846.70185707 </i>
    <i name="pawaedc"> -49425.09884567 </i>
    <i name="eentropy">     -0.00000917 </i>
    <i name="bandstr">  -8702.90162785 </i>
    <i name="atom">  90010.05447917 </i>
    <i name="e_fr_energy">  -1034.64612642 </i>
    <i name="e_wo_entrp">  -1034.64611725 </i>
    <i name="e_0_energy">  -1034.64612183 </i>
   </energy>
  </scstep>
  <structure>
   <crystal>
    <varray name="basis" >
     <v>      14.92122653       0.00000000       0.04843544 </v>
     <v>       0.00000000      13.57115863       0.00000000 </v>
     <v>      -2.27411844       0.00000000      17.44344477 </v>
    </varray>
    <i name="volume">   3533.76330872 </i>
    <varray name="rec_basis" >
     <v>       0.06699027       0.00000000       0.00873358 </v>
     <v>       0.00000000       0.07368568       0.00000000 </v>
     <v>      -0.00018601       0.00000000       0.05730388 </v>
    </varray>
   </crystal>
   <varray name="positions" >
    <v>       0.09466029       0.06250000       0.07664137 </v>
    <v>       0.42799362       0.06250000       0.07664137 </v>
    <v>       0.76132696       0.06250000       0.07664137 </v>
    <v>       0.09466029       0.31250000       0.07664137 </v>
    <v>       0.42799362       0.31250000       0.07664137 </v>
    <v>       0.76132696       0.31250000       0.07664137 </v>
    <v>       0.09466029       0.56250000       0.07664137 </v>
    <v>       0.42799362       0.56250000       0.07664137 </v>
    <v>       0.76132696       0.56250000       0.07664137 </v>
    <v>       0.09466029       0.81250000       0.07664137 </v>
    <v>       0.42799362       0.81250000       0.07664137 </v>
    <v>       0.76132696       0.81250000       0.07664137 </v>
    <v>       0.09466029       0.06250000       0.57664137 </v>
    <v>       0.42799362       0.06250000       0.57664137 </v>
    <v>       0.76132696       0.06250000       0.57664137 </v>
    <v>       0.09466029       0.31250000       0.57664137 </v>
    <v>       0.42799362       0.31250000       0.57664137 </v>
    <v>       0.76132696       0.31250000       0.57664137 </v>
    <v>       0.09466029       0.56250000       0.57664137 </v>
    <v>       0.42799362       0.56250000       0.57664137 </v>
    <v>       0.76132696       0.56250000       0.57664137 </v>
    <v>       0.09466029       0.81250000       0.57664137 </v>
    <v>       0.42799362       0.81250000       0.57664137 </v>
    <v>       0.76132696       0.81250000       0.57664137 </v>
    <v>       0.23867305       0.18750000       0.42335862 </v>
    <v>       0.57200639       0.18750000       0.42335862 </v>
    <v>       0.90533972       0.18750000       0.42335862 </v>
    <v>       0.23867305       0.43750000       0.42335862 </v>
    <v>       0.57200639       0.43750000       0.42335862 </v>
    <v>       0.90533972       0.43750000       0.42335862 </v>
    <v>       0.23867305       0.68750000       0.42335862 </v>
    <v>       0.57200639       0.68750000       0.42335862 </v>
    <v>       0.90533972       0.68750000       0.42335862 </v>
    <v>       0.23867305       0.93750000       0.42335862 </v>
    <v>       0.57200639       0.93750000       0.42335862 </v>
    <v>       0.90533972       0.93750000       0.42335862 </v>
    <v>       0.23867305       0.18750000       0.92335862 </v>
    <v>       0.57200639       0.18750000       0.92335862 </v>
    <v>       0.90533972       0.18750000       0.92335862 </v>
    <v>       0.23867305       0.43750000       0.92335862 </v>
    <v>       0.57200639       0.43750000       0.92335862 </v>
    <v>       0.90533972       0.43750000       0.92335862 </v>
    <v>       0.23867305       0.68750000       0.92335862 </v>
    <v>       0.57200639       0.68750000       0.92335862 </v>
    <v>       0.90533972       0.68750000       0.92335862 </v>
    <v>       0.23867305       0.93750000       0.92335862 </v>
    <v>       0.57200639       0.93750000       0.92335862 </v>
    <v>       0.90533972       0.93750000       0.92335862 </v>
    <v>       0.15632463       0.06250000       0.33843891 </v>
    <v>       0.48965796       0.06250000       0.33843891 </v>
    <v>       0.82299129       0.06250000       0.33843891 </v>
    <v>       0.15632463       0.31250000       0.33843891 </v>
    <v>       0.48965796       0.31250000       0.33843891 </v>
    <v>       0.82299129       0.31250000       0.33843891 </v>
    <v>       0.15632463       0.56250000       0.33843891 </v>
    <v>       0.48965796       0.56250000       0.33843891 </v>
    <v>       0.82299129       0.56250000       0.33843891 </v>
    <v>       0.15632463       0.81250000       0.33843891 </v>
    <v>       0.48965796       0.81250000       0.33843891 </v>
    <v>       0.82299129       0.81250000       0.33843891 </v>
    <v>       0.15632463       0.06250000       0.83843891 </v>
    <v>       0.48965796       0.06250000       0.83843891 </v>
    <v>       0.82299129       0.06250000       0.83843891 </v>
    <v>       0.15632463       0.31250000       0.83843891 </v>
    <v>       0.48965796       0.31250000       0.83843891 </v>
    <v>       0.82299129       0.31250000       0.83843891 </v>
    <v>       0.15632463       0.56250000       0.83843891 </v>
    <v>       0.48965796       0.56250000       0.83843891 </v>
    <v>       0.82299129       0.56250000       0.83843891 </v>
    <v>       0.15632463       0.81250000       0.83843891 </v>
    <v>       0.48965796       0.81250000       0.83843891 </v>
    <v>       0.82299129       0.81250000       0.83843891 </v>
    <v>       0.17700870       0.18750000       0.16156109 </v>
    <v>       0.51034203       0.18750000       0.16156109 </v>
    <v>       0.84367536       0.18750000       0.16156109 </v>
    <v>       0.17700870       0.43750000       0.16156109 </v>
    <v>       0.51034203       0.43750000       0.16156109 </v>
    <v>       0.84367536       0.43750000       0.16156109 </v>
    <v>       0.17700870       0.68750000       0.16156109 </v>
    <v>       0.51034203       0.68750000       0.16156109 </v>
    <v>       0.84367536       0.68750000       0.16156109 </v>
    <v>       0.17700870       0.93750000       0.16156109 </v>
    <v>       0.51034203       0.93750000       0.16156109 </v>
    <v>       0.84367536       0.93750000       0.16156109 </v>
    <v>       0.17700870       0.18750000       0.66156109 </v>
    <v>       0.51034203       0.18750000       0.66156109 </v>
    <v>       0.84367536       0.18750000       0.66156109 </v>
    <v>       0.17700870       0.43750000       0.66156109 </v>
    <v>       0.51034203       0.43750000       0.66156109 </v>
    <v>       0.84367536       0.43750000       0.66156109 </v>
    <v>       0.17700870       0.68750000       0.66156109 </v>
    <v>       0.51034203       0.68750000       0.66156109 </v>
    <v>       0.84367536       0.68750000       0.66156109 </v>
    <v>       0.17700870       0.93750000       0.66156109 </v>
    <v>       0.51034203       0.93750000       0.66156109 </v>
    <v>       0.84367536       0.93750000       0.66156109 </v>
    <v>       0.25395456       0.06250000       0.02552059 </v>
    <v>       0.58728789       0.06250000       0.02552059 </v>
    <v>       0.92062122       0.06250000       0.02552059 </v>
    <v>       0.25395456       0.31250000       0.02552059 </v>
    <v>       0.58728789       0.31250000       0.02552059 </v>
    <v>       0.92062122       0.31250000       0.02552059 </v>
    <v>       0.25395456       0.56250000       0.02552059 </v>
    <v>       0.58728789       0.56250000       0.02552059 </v>
    <v>       0.92062122       0.56250000       0.02552059 </v>
    <v>       0.25395456       0.81250000       0.02552059 </v>
    <v>       0.58728789       0.81250000       0.02552059 </v>
    <v>       0.92062122       0.81250000       0.02552059 </v>
    <v>       0.25395456       0.06250000       0.52552059 </v>
    <v>       0.58728789       0.06250000       0.52552059 </v>
    <v>       0.92062122       0.06250000       0.52552059 </v>
    <v>       0.25395456       0.31250000       0.52552059 </v>
    <v>       0.58728789       0.31250000       0.52552059 </v>
    <v>       0.92062122       0.31250000       0.52552059 </v>
    <v>       0.25395456       0.56250000       0.52552059 </v>
    <v>       0.58728789       0.56250000       0.52552059 </v>
    <v>       0.92062122       0.56250000       0.52552059 </v>
    <v>       0.25395456       0.81250000       0.52552059 </v>
    <v>       0.58728789       0.81250000       0.52552059 </v>
    <v>       0.92062122       0.81250000       0.52552059 </v>
    <v>       0.07937878       0.18750000       0.47447941 </v>
    <v>       0.41271211       0.18750000       0.47447941 </v>
    <v>       0.74604544       0.18750000       0.47447941 </v>
    <v>       0.07937878       0.43750000       0.47447941 </v>
    <v>       0.41271211       0.43750000       0.47447941 </v>
    <v>       0.74604544       0.43750000       0.47447941 </v>
    <v>       0.07937878       0.68750000       0.47447941 </v>
    <v>       0.41271211       0.68750000       0.47447941 </v>
    <v>       0.74604544       0.68750000       0.47447941 </v>
    <v>       0.07937878       0.93750000       0.47447941 </v>
    <v>       0.41271211       0.93750000       0.47447941 </v>
    <v>       0.74604544       0.93750000       0.47447941 </v>
    <v>       0.07937878       0.18750000       0.97447941 </v>
    <v>       0.41271211       0.18750000       0.97447941 </v>
    <v>       0.74604544       0.18750000       0.97447941 </v>
    <v>       0.07937878       0.43750000       0.97447941 </v>
    <v>       0.41271211       0.43750000       0.97447941 </v>
    <v>       0.74604544       0.43750000       0.97447941 </v>
    <v>       0.07937878       0.68750000       0.97447941 </v>
    <v>       0.41271211       0.68750000       0.97447941 </v>
    <v>       0.74604544       0.68750000       0.97447941 </v>
    <v>       0.07937878       0.93750000       0.97447941 </v>
    <v>       0.41271211       0.93750000       0.97447941 </v>
    <v>       0.74604544       0.93750000       0.97447941 </v>
    <v>       0.29356623       0.06250000       0.33636826 </v>
    <v>       0.62689957       0.06250000       0.33636826 </v>
    <v>       0.96023290       0.06250000       0.33636826 </v>
    <v>       0.29356623       0.31250000       0.33636826 </v>
    <v>       0.62689957       0.31250000       0.33636826 </v>
    <v>       0.96023290       0.31250000       0.33636826 </v>
    <v>       0.29356623       0.56250000       0.33636826 </v>
    <v>       0.62689957       0.56250000       0.33636826 </v>
    <v>       0.96023290       0.56250000       0.33636826 </v>
    <v>       0.29356623       0.81250000       0.33636826 </v>
    <v>       0.62689957       0.81250000       0.33636826 </v>
    <v>       0.96023290       0.81250000       0.33636826 </v>
    <v>       0.29356623       0.06250000       0.83636826 </v>
    <v>       0.62689957       0.06250000       0.83636826 </v>
    <v>       0.96023290       0.06250000       0.83636826 </v>
    <v>       0.29356623       0.31250000       0.83636826 </v>
    <v>       0.62689957       0.31250000       0.83636826 </v>
    <v>       0.96023290       0.31250000       0.83636826 </v>
    <v>       0.29356623       0.56250000       0.83636826 </v>
    <v>       0.62689957       0.56250000       0.83636826 </v>
    <v>       0.96023290       0.56250000       0.83636826 </v>
    <v>       0.29356623       0.81250000       0.83636826 </v>
    <v>       0.62689957       0.81250000       0.83636826 </v>
    <v>       0.96023290       0.81250000       0.83636826 </v>
    <v>       0.03976710       0.18750000       0.16363174 </v>
    <v>       0.37310043       0.18750000       0.16363174 </v>
    <v>       0.70643377       0.18750000       0.16363174 </v>
    <v>       0.03976710       0.43750000       0.16363174 </v>
    <v>       0.37310043       0.43750000       0.16363174 </v>
    <v>       0.70643377       0.43750000       0.16363174 </v>
    <v>       0.03976710       0.68750000       0.16363174 </v>
    <v>       0.37310043       0.68750000       0.16363174 </v>
    <v>       0.70643377       0.68750000       0.16363174 </v>
    <v>       0.03976710       0.93750000       0.16363174 </v>
    <v>       0.37310043       0.93750000       0.16363174 </v>
    <v>       0.70643377       0.93750000       0.16363174 </v>
    <v>       0.03976710       0.18750000       0.66363174 </v>
    <v>       0.37310043       0.18750000       0.66363174 </v>
    <v>       0.70643377       0.18750000       0.66363174 </v>
    <v>       0.03976710       0.43750000       0.66363174 </v>
    <v>       0.37310043       0.43750000       0.66363174 </v>
    <v>       0.70643377       0.43750000       0.66363174 </v>
    <v>       0.03976710       0.68750000       0.66363174 </v>
    <v>       0.37310043       0.68750000       0.66363174 </v>
    <v>       0.70643377       0.68750000       0.66363174 </v>
    <v>       0.03976710       0.93750000       0.66363174 </v>
    <v>       0.37310043       0.93750000       0.66363174 </v>
    <v>       0.70643377       0.93750000       0.66363174 </v>
   </varray>
  </structure>
  <varray name="forces" >
   <v>      -0.00028734       0.00000000       0.00041592 </v>
   <v>      -0.00028734       0.00000000       0.00041592 </v>
   <v>      -0.00028734      -0.00000000       0.00041592 </v>
   <v>      -0.00028734       0.00000000       0.00041592 </v>
   <v>      -0.00028734       0.00000000       0.00041592 </v>
   <v>      -0.00028734      -0.00000000       0.00041592 </v>
   <v>      -0.00028734       0.00000000       0.00041592 </v>
   <v>      -0.00028734      -0.00000000       0.00041592 </v>
   <v>      -0.00028734      -0.00000000       0.00041592 </v>
   <v>      -0.00028734       0.00000000       0.00041592 </v>
   <v>      -0.00028734      -0.00000000       0.00041592 </v>
   <v>      -0.00028734      -0.00000000       0.00041592 </v>
   <v>      -0.00028734      -0.00000000       0.00041592 </v>
   <v>      -0.00028734       0.00000000       0.00041592 </v>
   <v>      -0.00028734       0.00000000       0.00041592 </v>
   <v>      -0.00028734      -0.00000000       0.00041592 </v>
   <v>      -0.00028734      -0.00000000       0.00041592 </v>
   <v>      -0.00028734       0.00000000       0.00041592 </v>
   <v>      -0.00028734       0.00000000       0.00041592 </v>
   <v>      -0.00028734      -0.00000000       0.00041592 </v>
   <v>      -0.00028734       0.00000000       0.00041592 </v>
   <v>      -0.00028734      -0.00000000       0.00041592 </v>
   <v>      -0.00028734       0.00000000       0.00041592 </v>
   <v>      -0.00028734       0.00000000       0.00041592 </v>
   <v>       0.00028734      -0.00000000      -0.00041592 </v>
   <v>       0.00028734       0.00000000      -0.00041592 </v>
   <v>       0.00028734       0.00000000      -0.00041592 </v>
   <v>       0.00028734      -0.00000000      -0.00041592 </v>
   <v>       0.00028734       0.00000000      -0.00041592 </v>
   <v>       0.00028734       0.00000000      -0.00041592 </v>
   <v>       0.00028734       0.00000000      -0.00041592 </v>
   <v>       0.00028734       0.00000000      -0.00041592 </v>
   <v>       0.00028734       0.00000000      -0.00041592 </v>
   <v>       0.00028734      -0.00000000      -0.00041592 </v>
   <v>       0.00028734       0.00000000      -0.00041592 </v>
   <v>       0.00028734       0.00000000      -0.00041592 </v>
   <v>       0.00028734       0.00000000      -0.00041592 </v>
   <v>       0.00028734      -0.00000000      -0.00041592 </v>
   <v>       0.00028734      -0.00000000      -0.00041592 </v>
   <v>       0.00028734       0.00000000      -0.00041592 </v>
   <v>       0.00028734      -0.00000000      -0.00041592 </v>
   <v>       0.00028734      -0.00000000      -0.00041592 </v>
   <v>       0.00028734       0.00000000      -0.00041592 </v>
   <v>       0.00028734      -0.00000000      -0.00041592 </v>
   <v>       0.00028734      -0.00000000      -0.00041592 </v>
   <v>       0.00028734       0.00000000      -0.00041592 </v>
   <v>       0.00028734      -0.00000000      -0.00041592 </v>
   <v>       0.00028734      -0.00000000      -0.00041592 </v>
   <v>      -0.00233848       0.00000000      -0.00075237 </v>
   <v>      -0.00233848      -0.00000000      -0.00075237 </v>
   <v>      -0.00233848      -0.00000000      -0.00075237 </v>
   <v>      -0.00233848       0.00000000      -0.00075237 </v>
   <v>      -0.00233848      -0.00000000      -0.00075237 </v>
   <v>      -0.00233848      -0.00000000      -0.00075237 </v>
   <v>      -0.00233848       0.00000000      -0.00075237 </v>
   <v>      -0.00233848      -0.00000000      -0.00075237 </v>
   <v>      -0.00233848      -0.00000000      -0.00075237 </v>
   <v>      -0.00233848       0.00000000      -0.00075237 </v>
   <v>      -0.00233848      -0.00000000      -0.00075237 </v>
   <v>      -0.00233848      -0.00000000      -0.00075237 </v>
   <v>      -0.00233848      -0.00000000      -0.00075237 </v>
   <v>      -0.00233848       0.00000000      -0.00075237 </v>
   <v>      -0.00233848       0.00000000      -0.00075237 </v>
   <v>      -0.00233848      -0.00000000      -0.00075237 </v>
   <v>      -0.00233848       0.00000000      -0.00075237 </v>
   <v>      -0.00233848       0.00000000      -0.00075237 </v>
   <v>      -0.00233848      -0.00000000      -0.00075237 </v>
   <v>      -0.00233848       0.00000000      -0.00075237 </v>
   <v>      -0.00233848       0.00000000      -0.00075237 </v>
   <v>      -0.00233848      -0.00000000      -0.00075237 </v>
   <v>      -0.00233848       0.00000000      -0.00075237 </v>
   <v>      -0.00233848       0.00000000      -0.00075237 </v>
   <v>       0.00233848      -0.00000000       0.00075237 </v>
   <v>       0.00233848      -0.00000000       0.00075237 </v>
   <v>       0.00233848       0.00000000       0.00075237 </v>
   <v>       0.00233848       0.00000000       0.00075237 </v>
   <v>       0.00233848      -0.00000000       0.00075237 </v>
   <v>       0.00233848      -0.00000000       0.00075237 </v>
   <v>       0.00233848      -0.00000000       0.00075237 </v>
   <v>       0.00233848      -0.00000000       0.00075237 </v>
   <v>       0.00233848      -0.00000000       0.00075237 </v>
   <v>       0.00233848      -0.00000000       0.00075237 </v>
   <v>       0.00233848       0.00000000       0.00075237 </v>
   <v>       0.00233848       0.00000000       0.00075237 </v>
   <v>       0.00233848       0.00000000       0.00075237 </v>
   <v>       0.00233848       0.00000000       0.00075237 </v>
   <v>       0.00233848      -0.00000000       0.00075237 </v>
   <v>       0.00233848      -0.00000000       0.00075237 </v>
   <v>       0.00233848       0.00000000       0.00075237 </v>
   <v>       0.00233848       0.00000000       0.00075237 </v>
   <v>       0.00233848      -0.00000000       0.00075237 </v>
   <v>       0.00233848       0.00000000       0.00075237 </v>
   <v>       0.00233848      -0.00000000       0.00075237 </v>
   <v>       0.00233848       0.00000000       0.00075237 </v>
   <v>       0.00233848       0.00000000       0.00075237 </v>
   <v>       0.00233848      -0.00000000       0.00075237 </v>
   <v>      -0.00000149       0.00000000       0.00272051 </v>
   <v>      -0.00000149       0.00000000       0.00272051 </v>
   <v>      -0.00000149      -0.00000000       0.00272051 </v>
   <v>      -0.00000149       0.00000000       0.00272051 </v>
   <v>      -0.00000149       0.00000000       0.00272051 </v>
   <v>      -0.00000149      -0.00000000       0.00272051 </v>
   <v>      -0.00000149       0.00000000       0.00272051 </v>
   <v>      -0.00000149      -0.00000000       0.00272051 </v>
   <v>      -0.00000149      -0.00000000       0.00272051 </v>
   <v>      -0.00000149      -0.00000000       0.00272051 </v>
   <v>      -0.00000149      -0.00000000       0.00272051 </v>
   <v>      -0.00000149       0.00000000       0.00272051 </v>
   <v>      -0.00000149       0.00000000       0.00272051 </v>
   <v>      -0.00000149       0.00000000       0.00272051 </v>
   <v>      -0.00000149       0.00000000       0.00272051 </v>
   <v>      -0.00000149      -0.00000000       0.00272051 </v>
   <v>      -0.00000149       0.00000000       0.00272051 </v>
   <v>      -0.00000149      -0.00000000       0.00272051 </v>
   <v>      -0.00000149       0.00000000       0.00272051 </v>
   <v>      -0.00000149       0.00000000       0.00272051 </v>
   <v>      -0.00000149       0.00000000       0.00272051 </v>
   <v>      -0.00000149      -0.00000000       0.00272051 </v>
   <v>      -0.00000149       0.00000000       0.00272051 </v>
   <v>      -0.00000149      -0.00000000       0.00272051 </v>
   <v>       0.00000149       0.00000000      -0.00272051 </v>
   <v>       0.00000149       0.00000000      -0.00272051 </v>
   <v>       0.00000149       0.00000000      -0.00272051 </v>
   <v>       0.00000149       0.00000000      -0.00272051 </v>
   <v>       0.00000149       0.00000000      -0.00272051 </v>
   <v>       0.00000149      -0.00000000      -0.00272051 </v>
   <v>       0.00000149       0.00000000      -0.00272051 </v>
   <v>       0.00000149       0.00000000      -0.00272051 </v>
   <v>       0.00000149       0.00000000      -0.00272051 </v>
   <v>       0.00000149       0.00000000      -0.00272051 </v>
   <v>       0.00000149      -0.00000000      -0.00272051 </v>
   <v>       0.00000149       0.00000000      -0.00272051 </v>
   <v>       0.00000149       0.00000000      -0.00272051 </v>
   <v>       0.00000149      -0.00000000      -0.00272051 </v>
   <v>       0.00000149      -0.00000000      -0.00272051 </v>
   <v>       0.00000149      -0.00000000      -0.00272051 </v>
   <v>       0.00000149      -0.00000000      -0.00272051 </v>
   <v>       0.00000149      -0.00000000      -0.00272051 </v>
   <v>       0.00000149       0.00000000      -0.00272051 </v>
   <v>       0.00000149      -0.00000000      -0.00272051 </v>
   <v>       0.00000149       0.00000000      -0.00272051 </v>
   <v>       0.00000149      -0.00000000      -0.00272051 </v>
   <v>       0.00000149      -0.00000000      -0.00272051 </v>
   <v>       0.00000149      -0.00000000      -0.00272051 </v>
   <v>       0.00241164      -0.00000000      -0.00078055 </v>
   <v>       0.00241164      -0.00000000      -0.00078055 </v>
   <v>       0.00241164       0.00000000      -0.00078055 </v>
   <v>       0.00241164      -0.00000000      -0.00078055 </v>
   <v>       0.00241164      -0.00000000      -0.00078055 </v>
   <v>       0.00241164       0.00000000      -0.00078055 </v>
   <v>       0.00241164      -0.00000000      -0.00078055 </v>
   <v>       0.00241164      -0.00000000      -0.00078055 </v>
   <v>       0.00241164       0.00000000      -0.00078055 </v>
   <v>       0.00241164      -0.00000000      -0.00078055 </v>
   <v>       0.00241164      -0.00000000      -0.00078055 </v>
   <v>       0.00241164       0.00000000      -0.00078055 </v>
   <v>       0.00241164      -0.00000000      -0.00078055 </v>
   <v>       0.00241164       0.00000000      -0.00078055 </v>
   <v>       0.00241164      -0.00000000      -0.00078055 </v>
   <v>       0.00241164      -0.00000000      -0.00078055 </v>
   <v>       0.00241164      -0.00000000      -0.00078055 </v>
   <v>       0.00241164      -0.00000000      -0.00078055 </v>
   <v>       0.00241164      -0.00000000      -0.00078055 </v>
   <v>       0.00241164       0.00000000      -0.00078055 </v>
   <v>       0.00241164      -0.00000000      -0.00078055 </v>
   <v>       0.00241164       0.00000000      -0.00078055 </v>
   <v>       0.00241164       0.00000000      -0.00078055 </v>
   <v>       0.00241164      -0.00000000      -0.00078055 </v>
   <v>      -0.00241164      -0.00000000       0.00078055 </v>
   <v>      -0.00241164       0.00000000       0.00078055 </v>
   <v>      -0.00241164      -0.00000000       0.00078055 </v>
   <v>      -0.00241164      -0.00000000       0.00078055 </v>
   <v>      -0.00241164      -0.00000000       0.00078055 </v>
   <v>      -0.00241164       0.00000000       0.00078055 </v>
   <v>      -0.00241164      -0.00000000       0.00078055 </v>
   <v>      -0.00241164      -0.00000000       0.00078055 </v>
   <v>      -0.00241164      -0.00000000       0.00078055 </v>
   <v>      -0.00241164      -0.00000000       0.00078055 </v>
   <v>      -0.00241164       0.00000000       0.00078055 </v>
   <v>      -0.00241164      -0.00000000       0.00078055 </v>
   <v>      -0.00241164      -0.00000000       0.00078055 </v>
   <v>      -0.00241164      -0.00000000       0.00078055 </v>
   <v>      -0.00241164      -0.00000000       0.00078055 </v>
   <v>      -0.00241164       0.00000000       0.00078055 </v>
   <v>      -0.00241164       0.00000000       0.00078055 </v>
   <v>      -0.00241164       0.00000000       0.00078055 </v>
   <v>      -0.00241164      -0.00000000       0.00078055 </v>
   <v>      -0.00241164       0.00000000       0.00078055 </v>
   <v>      -0.00241164      -0.00000000       0.00078055 </v>
   <v>      -0.00241164       0.00000000       0.00078055 </v>
   <v>      -0.00241164       0.00000000       0.00078055 </v>
   <v>      -0.00241164       0.00000000       0.00078055 </v>
  </varray>
  <varray name="stress" >
   <v>      30.59054895       0.00000000      -2.24682738 </v>
   <v>       0.00000000     -19.28316289       0.00000000 </v>
   <v>      -2.24682738       0.00000000     -14.23195332 </v>
  </varray>
  <energy>
   <i name="e_fr_energy">  -1034.64612642 </i>
   <i name="e_wo_entrp">  -1034.64612183 </i>
   <i name="e_0_energy">     -0.00000917 </i>
  </energy>
  <time name="totalsc"> 2464.28 2479.85</time>
  <eigenvalues>
   <array>
    <dimension dim="1">band</dimension>
    <dimension dim="2">kpoint</dimension>
    <dimension dim="3">spin</dimension>
    <field>eigene</field>
    <field>occ</field>
    <set>
     <set comment="spin 1">
      <set comment="kpoint 1">
       <r>  -28.3445    1.0000 </r>
       <r>  -28.3445    1.0000 </r>
       <r>  -28.3445    1.0000 </r>
       <r>  -28.3445    1.0000 </r>
       <r>  -28.3442    1.0000 </r>
       <r>  -28.3442    1.0000 </r>
       <r>  -28.3442    1.0000 </r>
       <r>  -28.3442    1.0000 </r>
       <r>  -28.3442    1.0000 </r>
       <r>  -28.3442    1.0000 </r>
       <r>  -28.3442    1.0000 </r>
       <r>  -28.3442    1.0000 </r>
       <r>  -28.3027    1.0000 </r>
       <r>  -28.3026    1.0000 </r>
       <r>  -28.2992    1.0000 </r>
       <r>  -28.2992    1.0000 </r>
       <r>  -28.2992    1.0000 </r>
       <r>  -28.2992    1.0000 </r>
       <r>  -28.2969    1.0000 </r>
       <r>  -28.2969    1.0000 </r>
       <r>  -28.2969    1.0000 </r>
       <r>  -28.2969    1.0000 </r>
       <r>  -28.2955    1.0000 </r>
       <r>  -28.2955    1.0000 </r>
       <r>  -28.2955    1.0000 </r>
       <r>  -28.2955    1.0000 </r>
       <r>  -28.2955    1.0000 </r>
       <r>  -28.2955    1.0000 </r>
       <r>  -28.2955    1.0000 </r>
       <r>  -28.2955    1.0000 </r>
       <r>  -28.2927    1.0000 </r>
       <r>  -28.2927    1.0000 </r>
       <r>  -28.2927    1.0000 </r>
       <r>  -28.2927    1.0000 </r>
       <r>  -28.2927    1.0000 </r>
       <r>  -28.2927    1.0000 </r>
       <r>  -28.2927    1.0000 </r>
       <r>  -28.2927    1.0000 </r>
       <r>  -28.2923    1.0000 </r>
       <r>  -28.2923    1.0000 </r>
       <r>  -28.2923    1.0000 </r>
       <r>  -28.2923    1.0000 </r>
       <r>  -28.2918    1.0000 </r>
       <r>  -28.2918    1.0000 </r>
       <r>  -28.2918    1.0000 </r>
       <r>  -28.2918    1.0000 </r>
       <r>  -28.2910    1.0000 </r>
       <r>  -28.2910    1.0000 </r>
       <r>  -28.2910    1.0000 </r>
       <r>  -28.2910    1.0000 </r>
       <r>  -28.2888    1.0000 </r>
       <r>  -28.2888    1.0000 </r>
       <r>  -28.2881    1.0000 </r>
       <r>  -28.2881    1.0000 </r>
       <r>  -28.2881    1.0000 </r>
       <r>  -28.2881    1.0000 </r>
       <r>  -28.2881    1.0000 </r>
       <r>  -28.2881    1.0000 </r>
       <r>  -28.2881    1.0000 </r>
       <r>  -28.2881    1.0000 </r>
       <r>  -28.2816    1.0000 </r>
       <r>  -28.2816    1.0000 </r>
       <r>  -28.2816    1.0000 </r>
       <r>  -28.2816    1.0000 </r>
       <r>  -28.2816    1.0000 </r>
       <r>  -28.2816    1.0000 </r>
       <r>  -28.2816    1.0000 </r>
       <r>  -28.2816    1.0000 </r>
       <r>  -28.2784    1.0000 </r>
       <r>  -28.2784    1.0000 </r>
       <r>  -28.2783    1.0000 </r>
       <r>  -28.2783    1.0000 </r>
       <r>  -28.2765    1.0000 </r>
       <r>  -28.2765    1.0000 </r>
       <r>  -28.2765    1.0000 </r>
       <r>  -28.2765    1.0000 </r>
       <r>  -28.2765    1.0000 </r>
       <r>  -28.2765    1.0000 </r>
       <r>  -28.2765    1.0000 </r>
       <r>  -28.2765    1.0000 </r>
       <r>  -28.2763    1.0000 </r>
       <r>  -28.2763    1.0000 </r>
       <r>  -28.2763    1.0000 </r>
       <r>  -28.2763    1.0000 </r>
       <r>  -28.2426    1.0000 </r>
       <r>  -28.2426    1.0000 </r>
       <r>  -28.2417    1.0000 </r>
       <r>  -28.2417    1.0000 </r>
       <r>  -28.2417    1.0000 </r>
       <r>  -28.2417    1.0000 </r>
       <r>  -28.2401    1.0000 </r>
       <r>  -28.2401    1.0000 </r>
       <r>  -28.2400    1.0000 </r>
       <r>  -28.2400    1.0000 </r>
       <r>  -28.2393    1.0000 </r>
       <r>  -28.2392    1.0000 </r>
       <r>  -28.0417    1.0000 </r>
       <r>  -28.0417    1.0000 </r>
       <r>  -28.0406    1.0000 </r>
       <r>  -28.0406    1.0000 </r>
       <r>  -28.0406    1.0000 </r>
       <r>  -28.0406    1.0000 </r>
       <r>  -28.0357    1.0000 </r>
       <r>  -28.0357    1.0000 </r>
       <r>  -28.0357    1.0000 </r>
       <r>  -28.0357    1.0000 </r>
       <r>  -28.0350    1.0000 </r>
       <r>  -28.0350    1.0000 </r>
       <r>  -28.0350    1.0000 </r>
       <r>  -28.0350    1.0000 </r>
       <r>  -28.0346    1.0000 </r>
       <r>  -28.0346    1.0000 </r>
       <r>  -28.0346    1.0000 </r>
       <r>  -28.0346    1.0000 </r>
       <r>  -28.0346    1.0000 </r>
       <r>  -28.0346    1.0000 </r>
       <r>  -28.0346    1.0000 </r>
       <r>  -28.0346    1.0000 </r>
       <r>  -28.0319    1.0000 </r>
       <r>  -28.0319    1.0000 </r>
       <r>  -28.0311    1.0000 </r>
       <r>  -28.0311    1.0000 </r>
       <r>  -28.0311    1.0000 </r>
       <r>  -28.0311    1.0000 </r>
       <r>  -28.0311    1.0000 </r>
       <r>  -28.0311    1.0000 </r>
       <r>  -28.0311    1.0000 </r>
       <r>  -28.0311    1.0000 </r>
       <r>  -28.0281    1.0000 </r>
       <r>  -28.0281    1.0000 </r>
       <r>  -28.0281    1.0000 </r>
       <r>  -28.0281    1.0000 </r>
       <r>  -28.0276    1.0000 </r>
       <r>  -28.0276    1.0000 </r>
       <r>  -28.0276    1.0000 </r>
       <r>  -28.0276    1.0000 </r>
       <r>  -28.0276    1.0000 </r>
       <r>  -28.0276    1.0000 </r>
       <r>  -28.0276    1.0000 </r>
       <r>  -28.0276    1.0000 </r>
       <r>  -28.0264    1.0000 </r>
       <r>  -28.0264    1.0000 </r>
       <r>  -28.0263    1.0000 </r>
       <r>  -28.0263    1.0000 </r>
       <r>  -10.6204    1.0000 </r>
       <r>  -10.5275    1.0000 </r>
       <r>  -10.3958    1.0000 </r>
       <r>  -10.3741    1.0000 </r>
       <r>  -10.3741    1.0000 </r>
       <r>  -10.3358    1.0000 </r>
       <r>  -10.3358    1.0000 </r>
       <r>  -10.3229    1.0000 </r>
       <r>  -10.3229    1.0000 </r>
       <r>  -10.2812    1.0000 </r>
       <r>  -10.2804    1.0000 </r>
       <r>  -10.2804    1.0000 </r>
       <r>  -10.1786    1.0000 </r>
       <r>  -10.1786    1.0000 </r>
       <r>  -10.1428    1.0000 </r>
       <r>  -10.1428    1.0000 </r>
       <r>  -10.1355    1.0000 </r>
       <r>  -10.1355    1.0000 </r>
       <r>  -10.1106    1.0000 </r>
       <r>  -10.1106    1.0000 </r>
       <r>  -10.1106    1.0000 </r>
       <r>  -10.1106    1.0000 </r>
       <r>  -10.0934    1.0000 </r>
       <r>  -10.0934    1.0000 </r>
       <r>  -10.0933    1.0000 </r>
       <r>  -10.0933    1.0000 </r>
       <r>  -10.0933    1.0000 </r>
       <r>  -10.0933    1.0000 </r>
       <r>   -9.9611    1.0000 </r>
       <r>   -9.9611    1.0000 </r>
       <r>   -9.9611    1.0000 </r>
       <r>   -9.9611    1.0000 </r>
       <r>   -9.9511    1.0000 </r>
       <r>   -9.9511    1.0000 </r>
       <r>   -9.9510    1.0000 </r>
       <r>   -9.9510    1.0000 </r>
       <r>   -9.9426    1.0000 </r>
       <r>   -9.9426    1.0000 </r>
       <r>   -9.9426    1.0000 </r>
       <r>   -9.9426    1.0000 </r>
       <r>   -9.7888    1.0000 </r>
       <r>   -9.7888    1.0000 </r>
       <r>   -9.7888    1.0000 </r>
       <r>   -9.7888    1.0000 </r>
       <r>   -9.7888    1.0000 </r>
       <r>   -9.7888    1.0000 </r>
       <r>   -9.7888    1.0000 </r>
       <r>   -9.7888    1.0000 </r>
       <r>   -8.0308    1.0000 </r>
       <r>   -7.9944    1.0000 </r>
       <r>   -7.7421    1.0000 </r>
       <r>   -7.7421    1.0000 </r>
       <r>   -7.7330    1.0000 </r>
       <r>   -7.7330    1.0000 </r>
       <r>   -7.6858    1.0000 </r>
       <r>   -7.6858    1.0000 </r>
       <r>   -7.6756    1.0000 </r>
       <r>   -7.6756    1.0000 </r>
       <r>   -7.4127    1.0000 </r>
       <r>   -7.4127    1.0000 </r>
       <r>   -7.4127    1.0000 </r>
       <r>   -7.4127    1.0000 </r>
       <r>   -7.4061    1.0000 </r>
       <r>   -7.4061    1.0000 </r>
       <r>   -7.4061    1.0000 </r>
       <r>   -7.4061    1.0000 </r>
       <r>   -7.0771    1.0000 </r>
       <r>   -7.0771    1.0000 </r>
       <r>   -7.0759    1.0000 </r>
       <r>   -7.0759    1.0000 </r>
       <r>   -6.8165    1.0000 </r>
       <r>   -6.8165    1.0000 </r>
       <r>   -6.8158    1.0000 </r>
       <r>   -6.8158    1.0000 </r>
       <r>   -6.8038    1.0000 </r>
       <r>   -6.8038    1.0000 </r>
       <r>   -6.8038    1.0000 </r>
       <r>   -6.8038    1.0000 </r>
       <r>   -6.8016    1.0000 </r>
       <r>   -6.8016    1.0000 </r>
       <r>   -6.8016    1.0000 </r>
       <r>   -6.8016    1.0000 </r>
       <r>   -6.7157    1.0000 </r>
       <r>   -6.7157    1.0000 </r>
       <r>   -6.7157    1.0000 </r>
       <r>   -6.7157    1.0000 </r>
       <r>   -6.7154    1.0000 </r>
       <r>   -6.7154    1.0000 </r>
       <r>   -6.7154    1.0000 </r>
       <r>   -6.7154    1.0000 </r>
       <r>   -6.3327    1.0000 </r>
       <r>   -6.3319    1.0000 </r>
       <r>   -6.3085    1.0000 </r>
       <r>   -6.3085    1.0000 </r>
       <r>   -6.3082    1.0000 </r>
       <r>   -6.3082    1.0000 </r>
       <r>   -6.1730    1.0000 </r>
       <r>   -6.1730    1.0000 </r>
       <r>   -6.1729    1.0000 </r>
       <r>   -6.1729    1.0000 </r>
       <r>   -5.9577    1.0000 </r>
       <r>   -5.9577    1.0000 </r>
       <r>   -5.9577    1.0000 </r>
       <r>   -5.9577    1.0000 </r>
       <r>   -5.9537    1.0000 </r>
       <r>   -5.9537    1.0000 </r>
       <r>   -5.9537    1.0000 </r>
       <r>   -5.9537    1.0000 </r>
       <r>   -5.9300    1.0000 </r>
       <r>   -5.9300    1.0000 </r>
       <r>   -5.8877    1.0000 </r>
       <r>   -5.8877    1.0000 </r>
       <r>   -5.7972    1.0000 </r>
       <r>   -5.7972    1.0000 </r>
       <r>   -5.7972    1.0000 </r>
       <r>   -5.7972    1.0000 </r>
       <r>   -5.7805    1.0000 </r>
       <r>   -5.7805    1.0000 </r>
       <r>   -5.7805    1.0000 </r>
       <r>   -5.7805    1.0000 </r>
       <r>   -5.7275    1.0000 </r>
       <r>   -5.7275    1.0000 </r>
       <r>   -5.7275    1.0000 </r>
       <r>   -5.7275    1.0000 </r>
       <r>   -5.7268    1.0000 </r>
       <r>   -5.7268    1.0000 </r>
       <r>   -5.7268    1.0000 </r>
       <r>   -5.7268    1.0000 </r>
       <r>   -5.3641    1.0000 </r>
       <r>   -5.3595    1.0000 </r>
       <r>   -5.3249    1.0000 </r>
       <r>   -5.3201    1.0000 </r>
       <r>   -5.1364    1.0000 </r>
       <r>   -5.1364    1.0000 </r>
       <r>   -5.1313    1.0000 </r>
       <r>   -5.1313    1.0000 </r>
       <r>   -5.1068    1.0000 </r>
       <r>   -5.1068    1.0000 </r>
       <r>   -5.1018    1.0000 </r>
[...]
       <r>    -9.6128    20.3408   383.9993 </r>
       <r>    -9.4803     0.0056   384.0000 </r>
       <r>    -9.3478     0.0000   384.0000 </r>
       <r>    -9.2153     0.0000   384.0000 </r>
       <r>    -9.0828     0.0000   384.0000 </r>
       <r>    -8.9503     0.0000   384.0000 </r>
       <r>    -8.8178     0.0000   384.0000 </r>
       <r>    -8.6853     0.0000   384.0000 </r>
       <r>    -8.5528     0.0000   384.0000 </r>
       <r>    -8.4203     0.0000   384.0000 </r>
       <r>    -8.2878     0.0000   384.0000 </r>
       <r>    -8.1553     0.0002   384.0000 </r>
       <r>    -8.0228     2.9157   384.3864 </r>
       <r>    -7.8903    31.9209   388.6161 </r>
       <r>    -7.7577    41.0227   394.0519 </r>
       <r>    -7.6252    46.8391   400.2585 </r>
       <r>    -7.4927    46.4543   406.4140 </r>
       <r>    -7.3602    51.9115   413.2926 </r>
       <r>    -7.2277    45.2208   419.2847 </r>
       <r>    -7.0952    43.4572   425.0431 </r>
       <r>    -6.9627    67.0459   433.9272 </r>
       <r>    -6.8302    45.4243   439.9462 </r>
       <r>    -6.6977    90.2827   451.9093 </r>
       <r>    -6.5652    80.9255   462.6325 </r>
       <r>    -6.4327    57.7385   470.2833 </r>
       <r>    -6.3002    74.5109   480.1565 </r>
       <r>    -6.1677    42.6425   485.8070 </r>
       <r>    -6.0352    65.3614   494.4678 </r>
       <r>    -5.9026   102.0323   507.9878 </r>
       <r>    -5.7701    86.4091   519.4377 </r>
       <r>    -5.6376    75.2753   529.4122 </r>
       <r>    -5.5051    56.3512   536.8791 </r>
       <r>    -5.3726    90.3282   548.8482 </r>
       <r>    -5.2401    72.7860   558.4929 </r>
       <r>    -5.1076    50.6050   565.1984 </r>
       <r>    -4.9751    56.5314   572.6892 </r>
       <r>    -4.8426    22.7203   575.6999 </r>
       <r>    -4.7101     2.2651   576.0000 </r>
       <r>    -4.5776     0.0000   576.0000 </r>
       <r>    -4.4451     0.0000   576.0000 </r>
       <r>    -4.3126     0.0000   576.0000 </r>
       <r>    -4.1801     0.0000   576.0000 </r>
       <r>    -4.0475     0.0000   576.0000 </r>
       <r>    -3.9150     0.0000   576.0000 </r>
       <r>    -3.7825     0.0000   576.0000 </r>
       <r>    -3.6500     0.0000   576.0000 </r>
       <r>    -3.5175     0.0000   576.0000 </r>
       <r>    -3.3850     0.0000   576.0000 </r>
       <r>    -3.2525     0.0000   576.0000 </r>
       <r>    -3.1200     0.0000   576.0000 </r>
       <r>    -2.9875     0.0000   576.0000 </r>
       <r>    -2.8550     0.0000   576.0000 </r>
       <r>    -2.7225     0.0000   576.0000 </r>
       <r>    -2.5900     0.0000   576.0000 </r>
       <r>    -2.4575     0.0000   576.0000 </r>
       <r>    -2.3249     0.0000   576.0000 </r>
       <r>    -2.1924     0.0000   576.0000 </r>
       <r>    -2.0599     0.0000   576.0000 </r>
       <r>    -1.9274     0.0000   576.0000 </r>
       <r>    -1.7949     0.0000   576.0000 </r>
       <r>    -1.6624     0.0000   576.0000 </r>
       <r>    -1.5299     0.0000   576.0000 </r>
       <r>    -1.3974     0.6551   576.0868 </r>
       <r>    -1.2649     6.9494   577.0077 </r>
       <r>    -1.1324    11.5053   578.5322 </r>
       <r>    -0.9999    43.1484   584.2497 </r>
       <r>    -0.8674    52.3985   591.1929 </r>
       <r>    -0.7349    78.2344   601.5595 </r>
       <r>    -0.6024    69.6966   610.7948 </r>
       <r>    -0.4698   130.4350   628.0783 </r>
       <r>    -0.3373   129.3223   645.2145 </r>
       <r>    -0.2048   109.0418   659.6633 </r>
       <r>    -0.0723    75.8048   669.7080 </r>
       <r>     0.0602    88.6834   681.4592 </r>
       <r>     0.1927    95.5165   694.1158 </r>
       <r>     0.3252    95.0744   706.7138 </r>
       <r>     0.4577   137.3697   724.9163 </r>
       <r>     0.5902   150.8185   744.9008 </r>
       <r>     0.7227   155.7253   765.5355 </r>
       <r>     0.8552   129.5030   782.6956 </r>
       <r>     0.9877   139.4443   801.1730 </r>
       <r>     1.1202   183.2153   825.4503 </r>
       <r>     1.2527   180.0802   849.3122 </r>
       <r>     1.3853    92.3094   861.5439 </r>
       <r>     1.5178   120.6874   877.5359 </r>
       <r>     1.6503   135.1541   895.4447 </r>
       <r>     1.7828   181.7486   919.5277 </r>
       <r>     1.9153   139.8263   938.0557 </r>
       <r>     2.0478   118.0326   953.6959 </r>
       <r>     2.1803   123.6363   970.0786 </r>
       <r>     2.3128   112.3904   984.9711 </r>
       <r>     2.4453   121.4915  1001.0696 </r>
       <r>     2.5778   106.1477  1015.1349 </r>
       <r>     2.7103   103.0575  1028.7908 </r>
       <r>     2.8428   109.1941  1043.2598 </r>
       <r>     2.9753   117.5317  1058.8336 </r>
       <r>     3.1078   135.3375  1076.7668 </r>
       <r>     3.2404   146.5370  1096.1840 </r>
       <r>     3.3729   127.8254  1113.1218 </r>
       <r>     3.5054   167.9023  1135.3700 </r>
       <r>     3.6379   171.0763  1158.0389 </r>
       <r>     3.7704   204.9684  1185.1986 </r>
       <r>     3.9029   240.7205  1217.0958 </r>
       <r>     4.0354   237.2949  1248.5391 </r>
       <r>     4.1679   165.3572  1270.4501 </r>
       <r>     4.3004   160.7590  1291.7518 </r>
       <r>     4.4329    89.9737  1303.6740 </r>
       <r>     4.5654    80.5668  1314.3497 </r>
       <r>     4.6979   101.0944  1327.7454 </r>
       <r>     4.8304    60.0913  1335.7080 </r>
       <r>     4.9629    25.4616  1339.0818 </r>
       <r>     5.0955    28.3077  1342.8328 </r>
       <r>     5.2280     8.7281  1343.9893 </r>
       <r>     5.3605     0.1396  1344.0078 </r>
       <r>     5.4930     4.6688  1344.6265 </r>
       <r>     5.6255    10.5356  1346.0225 </r>
       <r>     5.7580    27.4018  1349.6535 </r>
       <r>     5.8905    40.9515  1355.0798 </r>
       <r>     6.0230    52.1614  1361.9916 </r>
       <r>     6.1555    58.9606  1369.8043 </r>
       <r>     6.2880    88.2438  1381.4972 </r>
       <r>     6.4205    98.4464  1394.5421 </r>
       <r>     6.5530   106.6969  1408.6802 </r>
       <r>     6.6855    61.5651  1416.8380 </r>
       <r>     6.8180   120.1645  1432.7607 </r>
       <r>     6.9506   203.9260  1459.7823 </r>
       <r>     7.0831   338.4818  1504.6336 </r>
       <r>     7.2156   296.0349  1543.8603 </r>
       <r>     7.3481   186.2510  1568.5399 </r>
       <r>     7.4806   109.7434  1583.0817 </r>
       <r>     7.6131   181.2173  1607.0943 </r>
       <r>     7.7456   164.7589  1628.9260 </r>
       <r>     7.8781    23.1656  1631.9957 </r>
       <r>     8.0106     0.0328  1632.0000 </r>
       <r>     8.1431     0.0000  1632.0000 </r>
       <r>     8.2756     0.0000  1632.0000 </r>
       <r>     8.4081     0.0000  1632.0000 </r>
       <r>     8.5406     0.0000  1632.0000 </r>
       <r>     8.6731     0.0000  1632.0000 </r>
       <r>     8.8057     0.0000  1632.0000 </r>
       <r>     8.9382     0.0000  1632.0000 </r>
       <r>     9.0707     0.0000  1632.0000 </r>
       <r>     9.2032     0.0000  1632.0000 </r>
       <r>     9.3357     0.0000  1632.0000 </r>
       <r>     9.4682     0.0000  1632.0000 </r>
       <r>     9.6007     0.0000  1632.0000 </r>
      </set>
     </set>
    </array>
   </total>
  </dos>
 </calculation>
 <structure name="finalpos" >
  <crystal>
   <varray name="basis" >
    <v>      14.92122653       0.00000000       0.04843544 </v>
    <v>       0.00000000      13.57115863       0.00000000 </v>
    <v>      -2.27411844       0.00000000      17.44344477 </v>
   </varray>
   <i name="volume">   3533.76330872 </i>
   <varray name="rec_basis" >
    <v>       0.06699027       0.00000000       0.00873358 </v>
    <v>       0.00000000       0.07368568       0.00000000 </v>
    <v>      -0.00018601       0.00000000       0.05730388 </v>
   </varray>
  </crystal>
  <varray name="positions" >
   <v>       0.09466029       0.06250000       0.07664137 </v>
   <v>       0.42799362       0.06250000       0.07664137 </v>
   <v>       0.76132696       0.06250000       0.07664137 </v>
   <v>       0.09466029       0.31250000       0.07664137 </v>
   <v>       0.42799362       0.31250000       0.07664137 </v>
   <v>       0.76132696       0.31250000       0.07664137 </v>
   <v>       0.09466029       0.56250000       0.07664137 </v>
   <v>       0.42799362       0.56250000       0.07664137 </v>
   <v>       0.76132696       0.56250000       0.07664137 </v>
   <v>       0.09466029       0.81250000       0.07664137 </v>
   <v>       0.42799362       0.81250000       0.07664137 </v>
   <v>       0.76132696       0.81250000       0.07664137 </v>
   <v>       0.09466029       0.06250000       0.57664137 </v>
   <v>       0.42799362       0.06250000       0.57664137 </v>
   <v>       0.76132696       0.06250000       0.57664137 </v>
   <v>       0.09466029       0.31250000       0.57664137 </v>
   <v>       0.42799362       0.31250000       0.57664137 </v>
   <v>       0.76132696       0.31250000       0.57664137 </v>
   <v>       0.09466029       0.56250000       0.57664137 </v>
   <v>       0.42799362       0.56250000       0.57664137 </v>
   <v>       0.76132696       0.56250000       0.57664137 </v>
   <v>       0.09466029       0.81250000       0.57664137 </v>
   <v>       0.42799362       0.81250000       0.57664137 </v>
   <v>       0.76132696       0.81250000       0.57664137 </v>
   <v>       0.23867305       0.18750000       0.42335862 </v>
   <v>       0.57200639       0.18750000       0.42335862 </v>
   <v>       0.90533972       0.18750000       0.42335862 </v>
   <v>       0.23867305       0.43750000       0.42335862 </v>
   <v>       0.57200639       0.43750000       0.42335862 </v>
   <v>       0.90533972       0.43750000       0.42335862 </v>
   <v>       0.23867305       0.68750000       0.42335862 </v>
   <v>       0.57200639       0.68750000       0.42335862 </v>
   <v>       0.90533972       0.68750000       0.42335862 </v>
   <v>       0.23867305       0.93750000       0.42335862 </v>
   <v>       0.57200639       0.93750000       0.42335862 </v>
   <v>       0.90533972       0.93750000       0.42335862 </v>
   <v>       0.23867305       0.18750000       0.92335862 </v>
   <v>       0.57200639       0.18750000       0.92335862 </v>
   <v>       0.90533972       0.18750000       0.92335862 </v>
   <v>       0.23867305       0.43750000       0.92335862 </v>
   <v>       0.57200639       0.43750000       0.92335862 </v>
   <v>       0.90533972       0.43750000       0.92335862 </v>
   <v>       0.23867305       0.68750000       0.92335862 </v>
   <v>       0.57200639       0.68750000       0.92335862 </v>
   <v>       0.90533972       0.68750000       0.92335862 </v>
   <v>       0.23867305       0.93750000       0.92335862 </v>
   <v>       0.57200639       0.93750000       0.92335862 </v>
   <v>       0.90533972       0.93750000       0.92335862 </v>
   <v>       0.15632463       0.06250000       0.33843891 </v>
   <v>       0.48965796       0.06250000       0.33843891 </v>
   <v>       0.82299129       0.06250000       0.33843891 </v>
   <v>       0.15632463       0.31250000       0.33843891 </v>
   <v>       0.48965796       0.31250000       0.33843891 </v>
   <v>       0.82299129       0.31250000       0.33843891 </v>
   <v>       0.15632463       0.56250000       0.33843891 </v>
   <v>       0.48965796       0.56250000       0.33843891 </v>
   <v>       0.82299129       0.56250000       0.33843891 </v>
   <v>       0.15632463       0.81250000       0.33843891 </v>
   <v>       0.48965796       0.81250000       0.33843891 </v>
   <v>       0.82299129       0.81250000       0.33843891 </v>
   <v>       0.15632463       0.06250000       0.83843891 </v>
   <v>       0.48965796       0.06250000       0.83843891 </v>
   <v>       0.82299129       0.06250000       0.83843891 </v>
   <v>       0.15632463       0.31250000       0.83843891 </v>
   <v>       0.48965796       0.31250000       0.83843891 </v>
   <v>       0.82299129       0.31250000       0.83843891 </v>
   <v>       0.15632463       0.56250000       0.83843891 </v>
   <v>       0.48965796       0.56250000       0.83843891 </v>
   <v>       0.82299129       0.56250000       0.83843891 </v>
   <v>       0.15632463       0.81250000       0.83843891 </v>
   <v>       0.48965796       0.81250000       0.83843891 </v>
   <v>       0.82299129       0.81250000       0.83843891 </v>
   <v>       0.17700870       0.18750000       0.16156109 </v>
   <v>       0.51034203       0.18750000       0.16156109 </v>
   <v>       0.84367536       0.18750000       0.16156109 </v>
   <v>       0.17700870       0.43750000       0.16156109 </v>
   <v>       0.51034203       0.43750000       0.16156109 </v>
   <v>       0.84367536       0.43750000       0.16156109 </v>
   <v>       0.17700870       0.68750000       0.16156109 </v>
   <v>       0.51034203       0.68750000       0.16156109 </v>
   <v>       0.84367536       0.68750000       0.16156109 </v>
   <v>       0.17700870       0.93750000       0.16156109 </v>
   <v>       0.51034203       0.93750000       0.16156109 </v>
   <v>       0.84367536       0.93750000       0.16156109 </v>
   <v>       0.17700870       0.18750000       0.66156109 </v>
   <v>       0.51034203       0.18750000       0.66156109 </v>
   <v>       0.84367536       0.18750000       0.66156109 </v>
   <v>       0.17700870       0.43750000       0.66156109 </v>
   <v>       0.51034203       0.43750000       0.66156109 </v>
   <v>       0.84367536       0.43750000       0.66156109 </v>
   <v>       0.17700870       0.68750000       0.66156109 </v>
   <v>       0.51034203       0.68750000       0.66156109 </v>
   <v>       0.84367536       0.68750000       0.66156109 </v>
   <v>       0.17700870       0.93750000       0.66156109 </v>
   <v>       0.51034203       0.93750000       0.66156109 </v>
   <v>       0.84367536       0.93750000       0.66156109 </v>
   <v>       0.25395456       0.06250000       0.02552059 </v>
   <v>       0.58728789       0.06250000       0.02552059 </v>
   <v>       0.92062122       0.06250000       0.02552059 </v>
   <v>       0.25395456       0.31250000       0.02552059 </v>
   <v>       0.58728789       0.31250000       0.02552059 </v>
   <v>       0.92062122       0.31250000       0.02552059 </v>
   <v>       0.25395456       0.56250000       0.02552059 </v>
   <v>       0.58728789       0.56250000       0.02552059 </v>
   <v>       0.92062122       0.56250000       0.02552059 </v>
   <v>       0.25395456       0.81250000       0.02552059 </v>
   <v>       0.58728789       0.81250000       0.02552059 </v>
   <v>       0.92062122       0.81250000       0.02552059 </v>
   <v>       0.25395456       0.06250000       0.52552059 </v>
   <v>       0.58728789       0.06250000       0.52552059 </v>
   <v>       0.92062122       0.06250000       0.52552059 </v>
   <v>       0.25395456       0.31250000       0.52552059 </v>
   <v>       0.58728789       0.31250000       0.52552059 </v>
   <v>       0.92062122       0.31250000       0.52552059 </v>
   <v>       0.25395456       0.56250000       0.52552059 </v>
   <v>       0.58728789       0.56250000       0.52552059 </v>
   <v>       0.92062122       0.56250000       0.52552059 </v>
   <v>       0.25395456       0.81250000       0.52552059 </v>
   <v>       0.58728789       0.81250000       0.52552059 </v>
   <v>       0.92062122       0.81250000       0.52552059 </v>
   <v>       0.07937878       0.18750000       0.47447941 </v>
   <v>       0.41271211       0.18750000       0.47447941 </v>
   <v>       0.74604544       0.18750000       0.47447941 </v>
   <v>       0.07937878       0.43750000       0.47447941 </v>
   <v>       0.41271211       0.43750000       0.47447941 </v>
   <v>       0.74604544       0.43750000       0.47447941 </v>
   <v>       0.07937878       0.68750000       0.47447941 </v>
   <v>       0.41271211       0.68750000       0.47447941 </v>
   <v>       0.74604544       0.68750000       0.47447941 </v>
   <v>       0.07937878       0.93750000       0.47447941 </v>
   <v>       0.41271211       0.93750000       0.47447941 </v>
   <v>       0.74604544       0.93750000       0.47447941 </v>
   <v>       0.07937878       0.18750000       0.97447941 </v>
   <v>       0.41271211       0.18750000       0.97447941 </v>
   <v>       0.74604544       0.18750000       0.97447941 </v>
   <v>       0.07937878       0.43750000       0.97447941 </v>
   <v>       0.41271211       0.43750000       0.97447941 </v>
   <v>       0.74604544       0.43750000       0.97447941 </v>
   <v>       0.07937878       0.68750000       0.97447941 </v>
   <v>       0.41271211       0.68750000       0.97447941 </v>
   <v>       0.74604544       0.68750000       0.97447941 </v>
   <v>       0.07937878       0.93750000       0.97447941 </v>
   <v>       0.41271211       0.93750000       0.97447941 </v>
   <v>       0.74604544       0.93750000       0.97447941 </v>
   <v>       0.29356623       0.06250000       0.33636826 </v>
   <v>       0.62689957       0.06250000       0.33636826 </v>
   <v>       0.96023290       0.06250000       0.33636826 </v>
   <v>       0.29356623       0.31250000       0.33636826 </v>
   <v>       0.62689957       0.31250000       0.33636826 </v>
   <v>       0.96023290       0.31250000       0.33636826 </v>
   <v>       0.29356623       0.56250000       0.33636826 </v>
   <v>       0.62689957       0.56250000       0.33636826 </v>
   <v>       0.96023290       0.56250000       0.33636826 </v>
   <v>       0.29356623       0.81250000       0.33636826 </v>
   <v>       0.62689957       0.81250000       0.33636826 </v>
   <v>       0.96023290       0.81250000       0.33636826 </v>
   <v>       0.29356623       0.06250000       0.83636826 </v>
   <v>       0.62689957       0.06250000       0.83636826 </v>
   <v>       0.96023290       0.06250000       0.83636826 </v>
   <v>       0.29356623       0.31250000       0.83636826 </v>
   <v>       0.62689957       0.31250000       0.83636826 </v>
   <v>       0.96023290       0.31250000       0.83636826 </v>
   <v>       0.29356623       0.56250000       0.83636826 </v>
   <v>       0.62689957       0.56250000       0.83636826 </v>
   <v>       0.96023290       0.56250000       0.83636826 </v>
   <v>       0.29356623       0.81250000       0.83636826 </v>
   <v>       0.62689957       0.81250000       0.83636826 </v>
   <v>       0.96023290       0.81250000       0.83636826 </v>
   <v>       0.03976710       0.18750000       0.16363174 </v>
   <v>       0.37310043       0.18750000       0.16363174 </v>
   <v>       0.70643377       0.18750000       0.16363174 </v>
   <v>       0.03976710       0.43750000       0.16363174 </v>
   <v>       0.37310043       0.43750000       0.16363174 </v>
   <v>       0.70643377       0.43750000       0.16363174 </v>
   <v>       0.03976710       0.68750000       0.16363174 </v>
   <v>       0.37310043       0.68750000       0.16363174 </v>
   <v>       0.70643377       0.68750000       0.16363174 </v>
   <v>       0.03976710       0.93750000       0.16363174 </v>
   <v>       0.37310043       0.93750000       0.16363174 </v>
   <v>       0.70643377       0.93750000       0.16363174 </v>
   <v>       0.03976710       0.18750000       0.66363174 </v>
   <v>       0.37310043       0.18750000       0.66363174 </v>
   <v>       0.70643377       0.18750000       0.66363174 </v>
   <v>       0.03976710       0.43750000       0.66363174 </v>
   <v>       0.37310043       0.43750000       0.66363174 </v>
   <v>       0.70643377       0.43750000       0.66363174 </v>
   <v>       0.03976710       0.68750000       0.66363174 </v>
   <v>       0.37310043       0.68750000       0.66363174 </v>
   <v>       0.70643377       0.68750000       0.66363174 </v>
   <v>       0.03976710       0.93750000       0.66363174 </v>
   <v>       0.37310043       0.93750000       0.66363174 </v>
   <v>       0.70643377       0.93750000       0.66363174 </v>
  </varray>
 </structure>
</modeling>
